61
5s_dih_dIphme_auhsi.log	Energy: -897006.7601675
N          2.42333        1.68228        0.05824
C          1.12900        1.37744        0.00852
N          0.39924        2.49240       -0.01111
C          2.64182        3.13127        0.15910
H          3.35593        3.45811       -0.60952
H          3.06001        3.38541        1.14529
C          1.23190        3.69978       -0.04133
H          0.92748        4.39072        0.75723
H          1.11435        4.21935       -1.00555
C          3.49275        0.75019        0.01908
C          3.53486       -0.22828       -0.97561
C          4.57366       -1.15477       -0.99162
H          4.59348       -1.91893       -1.77262
C          5.60241       -1.11161       -0.04377
C          5.55174       -0.10638        0.93176
H          6.34024       -0.05033        1.68648
C          4.51180        0.81536        0.97108
C          6.74258       -2.08365       -0.08755
H          7.05563       -2.38180        0.92341
H          7.61969       -1.63172       -0.57930
H          6.48045       -2.99049       -0.64941
C         -1.02163        2.53117       -0.00040
C         -1.71966        2.08598        1.12289
C         -3.11165        2.10414        1.12453
H         -3.65031        1.75313        2.00869
C         -3.83342        2.57851        0.02227
C         -3.11160        3.02840       -1.09196
H         -3.65089        3.39657       -1.96836
C         -1.72055        3.00756       -1.11023
C         -5.33103        2.63390        0.04154
H         -5.75577        2.42150       -0.94995
H         -5.67691        3.63876        0.33454
H         -5.75486        1.91919        0.76045
Au         0.32439       -0.48611       -0.06905
H         -0.20009       -2.07683       -0.18963
H         -1.16552        1.73007        1.99445
H         -1.17667        3.34660       -1.99473
H          2.76313       -0.25167       -1.74863
H          4.48713        1.57399        1.75606
Si        -1.85746       -2.08521       -0.01025
C         -1.90353       -3.89596       -0.52396
H         -1.22784       -4.01487       -1.38824
H         -1.44922       -4.48392        0.29273
C         -3.29106       -4.43579       -0.87467
H         -3.72064       -3.91604       -1.74430
H         -3.23907       -5.50449       -1.13093
H         -4.00350       -4.33611       -0.04229
C         -2.75122       -0.93569       -1.20389
H         -2.33123        0.08006       -1.11400
H         -2.52870       -1.27099       -2.23162
C         -4.26187       -0.87895       -0.96359
H         -4.74376       -0.20376       -1.68660
H         -4.74341       -1.86280       -1.06405
H         -4.49491       -0.49413        0.04064
C         -2.24134       -1.79331        1.80728
H         -1.35362       -2.08888        2.39197
H         -2.35480       -0.70638        1.95573
C         -3.47435       -2.54207        2.31855
H         -3.34990       -3.63230        2.23736
H         -3.65777       -2.31617        3.37967
H         -4.38625       -2.27157        1.76523
