107
5s_dibutyl_ad_auhsi.log	Energy: -1243297.5711588
N          0.67030        1.70277        0.16712
C          0.78726        0.38399       -0.01410
N          2.07009        0.03111       -0.15135
C          2.01580        2.29424        0.39433
H          2.07119        3.25427       -0.12739
C          2.90507        1.25152       -0.30512
H          3.83894        1.11269        0.24740
C          2.57040       -1.36974       -0.00608
C          2.18633       -2.21110       -1.23438
C          4.09648       -1.38817        0.17375
C          1.98590       -2.03992        1.25649
H          2.58870       -1.75148       -2.14891
H          1.08667       -2.21186       -1.34460
C          2.69820       -3.64475       -1.08875
H          4.36859       -0.82443        1.08160
H          4.59407       -0.90605       -0.67281
C          4.60845       -2.82791        0.29820
H          0.88343       -2.04554        1.21437
H          2.26230       -1.45404        2.14515
C          2.48008       -3.48218        1.39312
H          2.41314       -4.21678       -1.98616
C          4.22253       -3.62203       -0.95175
C          2.07409       -4.28255        0.15402
H          5.70535       -2.79440        0.39216
C          4.00141       -3.48681        1.53516
H          2.01883       -3.92368        2.29118
H          4.67776       -3.17009       -1.84883
H          4.61331       -4.64980       -0.88033
H          0.97458       -4.30421        0.05722
H          2.40567       -5.32865        0.25315
H          4.37349       -4.51861        1.64097
H          4.30171       -2.94254        2.44589
C         -0.60736        2.45515        0.00159
C         -1.54324        2.18599        1.18960
C         -0.34298        3.96352       -0.12062
C         -1.33082        2.04091       -1.29690
H         -1.04975        2.46483        2.13190
H         -1.73630        1.10081        1.24947
C         -2.85484        2.95662        1.02936
H          0.28952        4.15793       -1.00266
H          0.19388        4.33688        0.75624
C         -1.66189        4.73164       -0.26206
H         -1.53098        0.95693       -1.28769
H         -0.67697        2.23058       -2.16046
C         -2.65362        2.79515       -1.45473
H         -3.49876        2.75043        1.89995
C         -2.55133        4.45495        0.95275
C         -3.55614        2.50814       -0.25358
H         -1.42930        5.80694       -0.31277
C         -2.37759        4.29556       -1.53927
H         -3.14293        2.45114       -2.38073
H         -2.05179        4.78960        1.87716
H         -3.48852        5.02877        0.87202
H         -3.78675        1.43179       -0.20173
H         -4.51806        3.03359       -0.36746
H         -3.32075        4.85249       -1.65971
H         -1.75671        4.52092       -2.42205
C          2.42231        2.54657        1.88535
C          3.86945        3.06082        1.89746
H          4.15154        3.33742        2.92380
H          4.60098        2.31393        1.55786
H          3.98408        3.95861        1.27073
C          1.58150        3.63245        2.55979
H          1.67475        4.60183        2.04781
H          0.51903        3.36835        2.62427
H          1.93978        3.77740        3.58966
C          2.32624        1.27354        2.72319
H          3.03096        0.50321        2.38208
H          2.57051        1.49545        3.77268
H          1.31098        0.84801        2.70122
C          3.28240        1.65368       -1.77090
C          4.05439        2.97996       -1.71113
H          3.44322        3.82568       -1.36494
H          4.93490        2.90534       -1.05455
H          4.41488        3.23980       -2.71711
C          2.04498        1.82290       -2.64971
H          1.40398        2.64486       -2.30318
H          2.34672        2.05885       -3.68103
H          1.44124        0.90276       -2.68309
C          4.21738        0.64752       -2.44449
H          5.16839        0.54273       -1.90135
H          3.76322       -0.34452       -2.55531
H          4.46238        1.00423       -3.45581
Au        -0.75179       -0.97104       -0.09790
H         -1.75927       -2.31216       -0.23063
Si        -3.35215       -2.02665       -0.02067
C         -4.00502       -1.17542       -1.56418
H         -3.37525       -0.29785       -1.78279
H         -3.85487       -1.86846       -2.41018
C         -5.47214       -0.75248       -1.46331
H         -5.63046       -0.02108       -0.65592
H         -5.80946       -0.28008       -2.39798
H         -6.14010       -1.60497       -1.27074
C         -3.70965       -1.15618        1.60955
H         -2.89924       -1.41047        2.31416
H         -3.63918       -0.06790        1.45089
C         -5.06507       -1.51974        2.22080
H         -5.22970       -0.96972        3.15935
H         -5.90298       -1.27657        1.55018
H         -5.13047       -2.59211        2.45798
C         -3.72069       -3.87375        0.02934
H         -3.05944       -4.36772       -0.70303
H         -3.40392       -4.24904        1.01826
C         -5.17593       -4.24952       -0.25488
H         -5.47990       -3.95441       -1.27059
H         -5.31937       -5.33777       -0.17905
H         -5.87676       -3.77958        0.45089
