59
5s_dih_dIterbutyl_auhsi.log	Energy: -755295.7905086
N         -2.93959       -0.53102        0.07600
C         -1.85842        0.25100        0.01338
N         -2.19347        1.53608        0.16141
C         -4.11350        0.26028        0.45446
H         -4.34276        0.10443        1.52305
H         -4.99892       -0.01429       -0.12924
C         -3.65204        1.67884        0.17358
H         -4.00240        2.03968       -0.80909
H         -3.98892        2.38704        0.93852
C         -1.28600        2.70800        0.01139
C         -0.17864        2.63309        1.06187
H          0.44840        1.73897        0.93228
H          0.47349        3.51463        0.98126
H         -0.60363        2.60771        2.07587
C         -2.07973        3.99239        0.25216
H         -1.39809        4.84729        0.14776
H         -2.88828        4.13114       -0.47911
H         -2.50193        4.03245        1.26663
C         -0.71631        2.73501       -1.40809
H         -1.52364        2.77989       -2.15434
H         -0.07610        3.61824       -1.54532
H         -0.10927        1.84030       -1.61550
C         -2.95259       -2.02209        0.09793
C         -2.33509       -2.56352       -1.19092
H         -1.27194       -2.29191       -1.29127
H         -2.39460       -3.66102       -1.19877
H         -2.86974       -2.17961       -2.07183
C         -2.20019       -2.52020        1.33332
H         -2.64177       -2.11192        2.25496
H         -2.24636       -3.61708        1.38989
H         -1.13846       -2.22851        1.30306
C         -4.40086       -2.50762        0.16737
H         -4.98550       -2.18520       -0.70636
H         -4.39939       -3.60586        0.17235
H         -4.91249       -2.17989        1.08319
Au         0.03913       -0.45361       -0.28679
H          1.48521       -1.22885       -0.66180
Si         2.78385       -0.42062       -0.04148
C          3.95436       -1.77093       -0.63011
H          3.47265       -2.74355       -0.43134
H          4.03385       -1.69445       -1.72847
C          5.33882       -1.73622        0.02057
H          5.28019       -1.87936        1.11030
H          5.97476       -2.54141       -0.37642
H          5.86475       -0.78747       -0.16227
C          2.68449       -0.29746        1.83483
H          1.67877        0.03882        2.13661
H          2.79024       -1.31951        2.23827
C          3.74188        0.63543        2.43059
H          3.67516        0.65229        3.52853
H          4.76553        0.32505        2.17266
H          3.61262        1.67125        2.08077
C          2.98619        1.21134       -0.95514
H          2.53256        1.09140       -1.95398
H          2.38435        1.97901       -0.44133
C          4.43877        1.67271       -1.09734
H          5.03922        0.95223       -1.67242
H          4.49224        2.63484       -1.62817
H          4.92976        1.81128       -0.12258
