91
5s_dih_dIdipp_auhsi.log	Energy: -1143249.5232481
N         -0.54385        1.91878       -0.51707
C         -1.01378        0.71793       -0.18308
N         -2.32477        0.65810       -0.39956
C         -1.62302        2.83073       -0.91192
H         -1.37221        3.34977       -1.84771
H         -1.76458        3.59362       -0.12835
C         -2.81468        1.88096       -1.04979
H         -3.72436        2.24681       -0.55900
H         -3.05549        1.66660       -2.10162
C          0.80727        2.35682       -0.35387
C          1.63651        2.41260       -1.49060
C          2.95065        2.85619       -1.32158
H          3.61677        2.90332       -2.18585
C          3.42238        3.23614       -0.06981
C          2.58518        3.17627        1.03804
H          2.96497        3.48086        2.01580
C          1.26138        2.74096        0.92295
C          0.37590        2.71046        2.15119
H         -0.58660        2.26398        1.86214
C          1.15961        1.96587       -2.85662
H          0.07743        1.78288       -2.78694
C         -3.14841       -0.48840       -0.14760
C         -3.72214       -0.64194        1.13593
C         -4.51467       -1.77200        1.36418
H         -4.96375       -1.90593        2.35146
C         -4.73873       -2.71754        0.37381
C         -4.17143       -2.53977       -0.87880
H         -4.34913       -3.28113       -1.66217
C         -3.37306       -1.42883       -1.17816
C         -2.89640       -1.35100       -2.62478
H         -2.87507       -2.40423       -2.94890
C         -3.52061        0.27172        2.33988
H         -4.35886        0.01391        3.00684
H         -5.35933       -3.59261        0.57801
H          4.45158        3.58446        0.04281
C          1.81081        0.63670       -3.23822
H          2.90249        0.74293       -3.33698
H          1.61534       -0.12943       -2.47307
H          1.41944        0.26857       -4.19870
C          1.37765        3.03196       -3.92795
H          0.90582        3.98643       -3.64988
H          2.44739        3.22772       -4.09786
H          0.94947        2.70507       -4.88748
C          0.08675        4.12292        2.66079
H         -0.60980        4.09165        3.51246
H          1.00680        4.62331        3.00030
H         -0.36027        4.75218        1.87630
C          0.96677        1.82693        3.24860
H          1.92226        2.22614        3.62158
H          0.27930        1.76106        4.10481
H          1.15118        0.80464        2.88136
C         -3.94307       -0.66475       -3.50876
H         -3.65196       -0.72664       -4.56849
H         -4.92887       -1.13882       -3.39855
H         -4.06478        0.40002       -3.25860
C         -1.49357       -0.81909       -2.89429
H         -1.42070        0.27371       -2.80953
H         -0.74956       -1.26310       -2.21624
H         -1.20061       -1.07406       -3.92366
C         -3.63417        1.77639        2.11364
H         -2.75087        2.20076        1.61742
H         -4.52991        2.03504        1.52985
H         -3.72181        2.28416        3.08585
C         -2.24758       -0.08681        3.10792
H         -2.21643       -1.15910        3.35004
H         -1.34275        0.14878        2.52624
H         -2.19215        0.47880        4.05069
Au         0.14483       -0.78566        0.52926
H          0.99072       -2.05577        1.23856
Si         2.47320       -2.14089        0.48594
C          3.11342       -3.30237        1.82154
H          2.78958       -2.90079        2.79710
H          2.59539       -4.27055        1.70885
C          4.63129       -3.49218        1.81753
H          5.15953       -2.54349        1.99773
H          4.93992       -4.18946        2.61069
H          4.99972       -3.90076        0.86476
C          3.40929       -0.50698        0.43187
H          2.73975        0.30162        0.09676
H          3.68657       -0.25092        1.46919
C          4.64460       -0.54425       -0.46968
H          5.16657        0.42416       -0.44538
H          5.36850       -1.31533       -0.16594
H          4.37219       -0.73849       -1.51838
C          2.18187       -2.97891       -1.17288
H          1.27258       -3.59605       -1.07227
H          1.93679       -2.20403       -1.91830
C          3.34771       -3.84271       -1.65923
H          3.55851       -4.66906       -0.96390
H          3.11981       -4.29283       -2.63698
H          4.27549       -3.26303       -1.77630
