83
5s_dibutyl_terbutyl_auhsi.log	Energy: -952284.4465253
N         -1.48948        1.10742        0.10236
C         -0.92136       -0.07668       -0.14607
N         -1.82768       -1.05837       -0.12576
C         -2.96889        0.96311        0.07489
H         -3.39865        1.57092        0.87687
C         -3.11646       -0.53410        0.39898
H         -3.93683       -0.96909       -0.17980
C         -1.59626       -2.42184       -0.71000
C         -0.96235       -2.31400       -2.10397
H          0.05927       -1.90373       -2.07822
H         -0.89316       -3.31875       -2.54366
H         -1.56384       -1.68729       -2.77432
C         -2.92697       -3.14651       -0.90769
H         -2.71895       -4.13270       -1.34402
H         -3.47362       -3.31047        0.02423
H         -3.57882       -2.61162       -1.61394
C         -0.67358       -3.23381        0.20093
H         -1.10444       -3.38698        1.19840
H         -0.48127       -4.22113       -0.24277
H          0.29760       -2.72846        0.32680
C         -0.72403        2.33051        0.51153
C          0.28371        1.98778        1.61707
H          1.05646        1.28490        1.27582
H          0.79201        2.90831        1.93738
H         -0.21156        1.54882        2.49237
C          0.02045        2.90970       -0.69283
H         -0.66533        3.22612       -1.48877
H          0.61305        3.78361       -0.38639
H          0.71191        2.16675       -1.12092
C         -1.66574        3.37477        1.10917
H         -2.16719        2.99958        2.01334
H         -1.06651        4.24489        1.40976
H         -2.42315        3.72723        0.40471
C         -3.41166       -0.81070        1.91114
C         -3.62512       -2.29502        2.21308
H         -3.85816       -2.41636        3.28121
H         -4.47456       -2.71011        1.65044
H         -2.73521       -2.90234        2.00909
C         -2.29283       -0.29105        2.81121
H         -2.19494        0.80171        2.75523
H         -2.50686       -0.54378        3.86026
H         -1.32185       -0.74167        2.55294
C         -4.72876       -0.10798        2.27142
H         -5.55216       -0.43383        1.61748
H         -5.00876       -0.36184        3.30418
H         -4.66768        0.98842        2.21975
C         -3.67836        1.37559       -1.25785
C         -5.17517        1.06559       -1.11048
H         -5.71376        1.43059       -1.99709
H         -5.39264       -0.00883       -1.02750
H         -5.60744        1.56895       -0.23203
C         -3.57948        2.87509       -1.54308
H         -4.12229        3.10260       -2.47230
H         -4.04216        3.47607       -0.74604
H         -2.54584        3.21231       -1.68655
C         -3.11551        0.61834       -2.45867
H         -3.29338       -0.46313       -2.38344
H         -3.60370        0.96333       -3.38213
H         -2.03338        0.78583       -2.57420
Au         1.07032       -0.36927       -0.53639
H          2.62772       -0.74785       -1.05787
Si         3.76178       -0.11029       -0.04525
C          3.53976       -0.69149        1.73325
H          2.48393       -0.58863        2.03382
H          3.75272       -1.77443        1.75556
C          4.43329        0.06005        2.72330
H          4.19181        1.13373        2.75299
H          4.30288       -0.33089        3.74337
H          5.50129       -0.03142        2.47501
C          3.80617        1.75462       -0.28800
H          3.42556        1.96594       -1.30197
H          3.08395        2.21608        0.40566
C          5.19333        2.37744       -0.11416
H          5.15306        3.46743       -0.25822
H          5.60894        2.19719        0.88850
H          5.91144        1.98064       -0.84722
C          5.13813       -1.02582       -0.94577
H          4.77712       -2.04648       -1.15926
H          5.27595       -0.54512       -1.92992
C          6.46207       -1.09417       -0.18230
H          6.35381       -1.63209        0.77181
H          7.22282       -1.62956       -0.76973
H          6.86844       -0.09700        0.04288
