73
5s_dih_dImes_auhsi.log	Energy: -995516.9651569
N          2.28012        1.54103        0.04266
C          0.99215        1.22778        0.01953
N          0.24399        2.32682        0.04206
C          2.49256        2.99309        0.08143
H          3.07294        3.31396       -0.79658
H          3.06558        3.26873        0.97923
C          1.05874        3.54654        0.08943
H          0.82597        4.12451        0.99655
H          0.84005        4.18558       -0.77910
C          3.34518        0.59054        0.02370
C          3.85270        0.16407       -1.21266
C          4.89715       -0.76138       -1.20396
H          5.30366       -1.10580       -2.15876
C          5.43364       -1.25897       -0.01223
C          4.88780       -0.81850        1.19772
H          5.28672       -1.20831        2.13817
C          3.84333        0.10572        1.24230
C          3.24661        0.54200        2.54809
H          2.18871        0.24122        2.62347
H          3.28023        1.63545        2.67455
H          3.78300        0.09414        3.39432
C          6.58317       -2.22140       -0.03054
H          6.57891       -2.83984       -0.93894
H          6.56699       -2.88782        0.84317
H          7.54193       -1.67732       -0.00938
C          3.26538        0.66034       -2.50126
H          2.21694        0.33741       -2.61164
H          3.82551        0.27472       -3.36261
H          3.27207        1.75960       -2.56457
C         -1.18257        2.32265        0.03131
C         -1.87161        2.24780        1.25137
C         -3.26738        2.22690        1.21408
H         -3.81866        2.16767        2.15672
C         -3.97518        2.27808        0.00901
C         -3.25008        2.34405       -1.18496
H         -3.78792        2.37436       -2.13653
C         -1.85431        2.36912       -1.20015
C         -1.09295        2.40672       -2.49224
H         -0.45145        3.29891       -2.56544
H         -1.77578        2.42037       -3.35137
H         -0.43405        1.52918       -2.59636
C         -5.47456        2.28620       -0.00094
H         -5.87605        1.85495       -0.92872
H         -5.85566        3.31823        0.07098
H         -5.88863        1.72767        0.85053
C         -1.12921        2.14475        2.55061
H         -1.81971        2.17890        3.40302
H         -0.40077        2.96011        2.67702
H         -0.56520        1.19904        2.61147
Au         0.22999       -0.64455       -0.04920
H         -0.27534       -2.25145       -0.12113
Si        -1.94043       -2.24355       -0.04024
C         -1.97422       -4.12340       -0.12075
H         -1.21642       -4.44355       -0.85605
H         -1.62610       -4.50681        0.85423
C         -3.33456       -4.72021       -0.48649
H         -3.65780       -4.40719       -1.49087
H         -3.28934       -5.81949       -0.49002
H         -4.12461       -4.43007        0.22206
C         -2.67414       -1.40389       -1.55573
H         -2.21118       -0.40897       -1.66417
H         -2.37694       -1.98376       -2.44653
C         -4.19436       -1.24392       -1.48503
H         -4.57775       -0.76064       -2.39642
H         -4.71556       -2.20759       -1.38424
H         -4.49073       -0.61151       -0.63487
C         -2.51227       -1.53041        1.60357
H         -1.70840       -1.68767        2.34293
H         -2.60507       -0.43823        1.47629
C         -3.82250       -2.12423        2.12649
H         -3.73217       -3.20305        2.32330
H         -4.11670       -1.64641        3.07313
H         -4.65432       -1.98492        1.41980
