97
5s_dibutyl_mes_auhsi.log	Energy: -1192508.2184981
N         -2.11628       -0.09198        0.04977
C         -0.83781        0.25117       -0.05784
N         -0.68512        1.57286       -0.04173
C         -2.99803        1.09553        0.20850
H         -3.70882        1.10633       -0.63167
C         -1.99137        2.28009        0.04728
H         -1.98958        2.88295        0.96831
C         -2.52647       -1.46208       -0.10083
C         -2.21936       -2.41264        0.89322
C         -2.61181       -3.73783        0.68237
H         -2.37286       -4.47727        1.45182
C         -3.30119       -4.14594       -0.45882
C         -3.56859       -3.18136       -1.43198
H         -4.07831       -3.47722       -2.35306
C         -3.18242       -1.84915       -1.28459
C         -3.45237       -0.88274       -2.39734
H         -2.59520       -0.22011       -2.57540
H         -4.32623       -0.24412       -2.18689
H         -3.66647       -1.41957       -3.33054
C         -3.74903       -5.56572       -0.63371
H         -3.66446       -5.88859       -1.68134
H         -4.80683       -5.67691       -0.34401
H         -3.16297       -6.25546       -0.01087
C         -1.54546       -2.08774        2.19672
H         -0.87956       -1.21767        2.14215
H         -0.94853       -2.94434        2.53878
H         -2.29264       -1.88382        2.98103
C          0.62286        2.16459        0.00874
C          1.46702        2.12779       -1.12082
C          2.73081        2.71618       -1.02017
H          3.37859        2.70526       -1.90176
C          3.18093        3.34140        0.14404
C          2.33279        3.32930        1.25140
H          2.66632        3.78742        2.18656
C          1.06709        2.73907        1.21381
C          0.23294        2.72074        2.45786
H         -0.54405        3.50272        2.44420
H          0.85569        2.90431        3.34302
H         -0.27400        1.75596        2.59078
C          4.53908        3.97309        0.20903
H          4.58374        4.75395        0.98056
H          4.81868        4.42402       -0.75366
H          5.31025        3.22479        0.45541
C          1.06769        1.54995       -2.44841
H          1.95042        1.17287       -2.98217
H          0.61306        2.32319       -3.08830
H          0.35054        0.72406       -2.36550
C         -3.84921        1.07400        1.51414
C         -4.75465       -0.16492        1.52518
H         -5.30654       -0.26951        0.57789
H         -4.20781       -1.09912        1.69417
H         -5.49715       -0.06632        2.33091
C         -4.77042        2.29480        1.55846
H         -4.21669        3.24256        1.57707
H         -5.47038        2.31564        0.71020
H         -5.37160        2.25324        2.47867
C         -2.97727        1.09819        2.76803
H         -2.51138        2.08163        2.92086
H         -3.59421        0.89668        3.65634
H         -2.18483        0.34122        2.73775
C         -2.25463        3.26543       -1.13129
C         -3.58241        3.99475       -0.91674
H         -3.58514        4.58495        0.01151
H         -3.74269        4.69396       -1.75062
H         -4.44168        3.31190       -0.89821
C         -1.16016        4.34046       -1.16588
H         -1.00763        4.79299       -0.17341
H         -0.19134        3.96155       -1.50966
H         -1.46138        5.14531       -1.85264
C         -2.32703        2.54477       -2.47617
H         -3.25357        1.96272       -2.57652
H         -2.32211        3.27938       -3.29516
H         -1.47802        1.86901       -2.63235
Au         0.70437       -1.07507       -0.16607
H          1.84733       -2.30066       -0.24469
Si         3.33674       -1.61575        0.04769
C          3.42112       -0.35258        1.44354
H          2.65911        0.42600        1.27154
H          3.14696       -0.85359        2.38786
C          4.79568        0.31168        1.55345
H          5.06330        0.83277        0.62196
H          4.79849        1.06458        2.35624
H          5.59747       -0.40789        1.77485
C          3.93317       -0.96033       -1.61005
H          3.35435       -1.46242       -2.40347
H          3.65379        0.10567       -1.65525
C          5.43124       -1.13947       -1.86278
H          5.71826       -0.71983       -2.83869
H          6.04582       -0.63790       -1.10000
H          5.71808       -2.20183       -1.87082
C          4.02737       -3.30477        0.51342
H          3.30098       -3.78230        1.19335
H          4.03095       -3.92472       -0.40031
C          5.41186       -3.28864        1.16244
H          5.40380       -2.74781        2.12078
H          5.75657       -4.31227        1.37217
H          6.17023       -2.81602        0.52063
