85
5s_dibutyl_phme_auhsi.log	Energy: -1094008.1895348
N          2.21010       -0.04931        0.00028
C          0.91784        0.26054        0.05370
N          0.76501        1.58348        0.02239
C          3.04753        1.14235       -0.24535
H          3.88008        1.14254        0.47234
C          2.06176        2.28939        0.07130
H          2.07978        3.04262       -0.72998
C          2.71865       -1.36863        0.14746
C          2.25909       -2.40369       -0.66823
C          2.75484       -3.69351       -0.49998
H          2.39077       -4.49327       -1.14977
C          3.72804       -3.97920        0.46452
C          4.18767       -2.92209        1.26153
H          4.94956       -3.11407        2.02129
C          3.68824       -1.63275        1.11487
C          4.25390       -5.37024        0.65353
H          3.78514       -5.84856        1.52919
H          5.33962       -5.36901        0.82788
H          4.04672       -6.00349       -0.21987
C         -0.50301        2.22256       -0.04364
C         -1.44002        2.03914        0.97460
C         -2.68525        2.65569        0.89258
H         -3.40721        2.51306        1.70103
C         -3.02417        3.47041       -0.19428
C         -2.06899        3.64235       -1.20517
H         -2.30807        4.26677       -2.06981
C         -0.82271        3.02755       -1.13696
C         -4.35460        4.15688       -0.26966
H         -4.25193        5.23241       -0.05263
H         -5.06810        3.74014        0.45425
H         -4.79388        4.07110       -1.27453
C          3.65497        1.17283       -1.67596
C          4.64369        0.01627       -1.86170
H          5.39844       -0.00060       -1.06014
H          4.15222       -0.96445       -1.88107
H          5.17614        0.13774       -2.81685
C          4.43691        2.47950       -1.84487
H          3.80161        3.37441       -1.77315
H          5.23889        2.56995       -1.09670
H          4.90838        2.49833       -2.83828
C          2.55839        1.08399       -2.73740
H          1.86350        1.93651       -2.69131
H          3.00544        1.08454       -3.74235
H          1.97111        0.15820       -2.63917
C          2.31425        3.02464        1.41653
C          3.71717        3.63979        1.37990
H          3.82812        4.34396        0.54150
H          3.89484        4.20135        2.30865
H          4.51574        2.88787        1.30093
C          1.31452        4.17361        1.59091
H          1.30975        4.83832        0.71283
H          0.28772        3.82381        1.75362
H          1.59805        4.77987        2.46415
C          2.20271        2.05873        2.59597
H          2.94917        1.25134        2.54566
H          2.36832        2.59571        3.54152
H          1.20572        1.59589        2.65043
H          1.53573       -2.19234       -1.45932
H          4.05250       -0.82994        1.75897
H         -0.09857        3.16511       -1.94247
H         -1.18049        1.42814        1.84194
Au        -0.62314       -1.06577        0.06910
H         -1.77360       -2.28954        0.02135
Si        -3.27856       -1.58613       -0.05638
C         -3.46238       -0.23687       -1.35922
H         -2.65871        0.50762       -1.23489
H         -3.30428       -0.69898       -2.34904
C         -4.81798        0.47160       -1.29850
H         -4.96041        0.98383       -0.33513
H         -4.88894        1.23871       -2.08430
H         -5.66319       -0.21851       -1.43777
C         -3.71411       -1.07163        1.69872
H         -3.11746       -1.69539        2.38598
H         -3.36038       -0.03780        1.84434
C         -5.19980       -1.19005        2.04523
H         -5.38915       -0.86067        3.07789
H         -5.83265       -0.57683        1.38617
H         -5.55297       -2.22936        1.96837
C         -4.03088       -3.23148       -0.57937
H         -3.37116       -3.66917       -1.34814
H         -3.97330       -3.91401        0.28657
C         -5.46224       -3.14998       -1.11201
H         -5.52040       -2.54047       -2.02644
H         -5.84098       -4.15109       -1.36680
H         -6.15881       -2.71646       -0.37897
