115
5s_dibutyl_dipp_auhsi.log	Energy: -1340225.0392228
N         -0.91991        1.33478        0.04769
C         -0.71313        0.02731       -0.12402
N         -1.83593       -0.66322        0.01367
C         -2.35758        1.64341        0.31824
H         -2.43356        2.03118        1.34614
C         -3.01902        0.22587        0.24596
H         -3.62821        0.18548       -0.66807
C          0.18564        2.24479        0.22205
C          0.95842        2.66526       -0.88774
C          2.00421        3.56495       -0.65573
H          2.60513        3.90517       -1.50182
C          2.28152        4.05383        0.61384
C          1.53114        3.60959        1.69319
H          1.76418        3.97280        2.69634
C          0.49406        2.68686        1.52731
C         -0.22073        2.18632        2.76768
H         -0.87048        1.35570        2.46204
C          0.71398        2.24173       -2.32570
H         -0.10201        1.50672       -2.32570
C         -1.93834       -2.08921       -0.15682
C         -1.53667       -2.97634        0.87794
C         -2.02688       -4.29024        0.80975
H         -1.79809       -4.97146        1.63274
C         -2.77658       -4.75717       -0.25589
C         -2.97700       -3.92300       -1.34438
H         -3.47272       -4.30743       -2.23961
C         -2.56023       -2.58971       -1.33121
C         -2.78402       -1.85402       -2.65158
H         -2.70491       -2.67027       -3.38840
C         -0.56112       -2.80350        2.05819
H         -1.10008       -3.23353        2.92026
H         -3.15517       -5.78122       -0.25997
H          3.08985        4.77304        0.76242
C          1.92910        1.55194       -2.94419
H          2.79646        2.22718       -3.00409
H          2.22938        0.66785       -2.36287
H          1.69875        1.21629       -3.96643
C          0.30316        3.43222       -3.19695
H         -0.54474        3.98771       -2.77582
H          1.13757        4.14060       -3.31269
H          0.01843        3.08976       -4.20343
C         -1.09604        3.26433        3.40809
H         -1.62970        2.86100        4.28238
H         -0.48700        4.11412        3.75290
H         -1.84395        3.66314        2.70752
C          0.76469        1.61907        3.79023
H          1.38898        2.40868        4.23486
H          0.22194        1.12981        4.61304
H          1.43519        0.87774        3.33400
C         -4.20014       -1.30471       -2.83836
H         -4.34161       -0.97122       -3.87751
H         -4.95391       -2.07691       -2.62611
H         -4.42217       -0.44563       -2.19031
C         -1.69786       -0.86414       -3.05210
H         -1.73535        0.06738       -2.48024
H         -0.69572       -1.30208       -2.92458
H         -1.81516       -0.59366       -4.11223
C         -0.02701       -1.45411        2.52303
H          0.77762       -1.08252        1.87059
H         -0.78015       -0.66966        2.59619
H          0.41247       -1.58358        3.52297
C          0.65567       -3.70618        1.79522
H          0.38475       -4.75832        1.64027
H          1.18403       -3.36590        0.88967
H          1.35705       -3.65707        2.64250
C         -3.96650       -0.22995        1.41284
C         -5.00120        0.84643        1.74947
H         -5.62138        0.47660        2.57859
H         -4.54424        1.78671        2.08553
H         -5.67785        1.05892        0.91369
C         -4.76279       -1.47227        0.98388
H         -5.29240       -1.29994        0.03478
H         -4.14242       -2.36881        0.87019
H         -5.52233       -1.69503        1.74818
C         -3.22398       -0.53987        2.70788
H         -3.95457       -0.74365        3.50420
H         -2.59465       -1.42901        2.61480
H         -2.60838        0.30730        3.04781
C         -2.93727        2.75709       -0.62193
C         -4.41161        3.04469       -0.33206
H         -4.58712        3.36393        0.70363
H         -4.73471        3.86756       -0.98639
H         -5.05960        2.18827       -0.55542
C         -2.19523        4.07741       -0.37106
H         -2.24489        4.36724        0.68927
H         -1.13905        4.04960       -0.65648
H         -2.67479        4.87917       -0.95188
C         -2.85216        2.37917       -2.09776
H         -3.19309        3.22415       -2.71380
H         -1.83419        2.13521       -2.41134
H         -3.50002        1.52588       -2.34122
Au         1.09995       -0.80585       -0.54218
H          2.51401       -1.60892       -0.98896
Si         3.82790       -0.98302       -0.19632
C          3.58732        0.48439        0.96293
H          2.82374        1.16566        0.55469
H          3.17541        0.09997        1.91125
C          4.87652        1.27039        1.21311
H          5.26415        1.71487        0.28394
H          4.68775        2.09853        1.91280
H          5.67577        0.64964        1.64507
C          4.85449       -0.58364       -1.72124
H          4.51724       -1.23964       -2.54154
H          4.60820        0.44355       -2.03792
C          6.36279       -0.73900       -1.51747
H          6.91019       -0.48193       -2.43662
H          6.74576       -0.08672       -0.71832
H          6.63371       -1.77377       -1.25855
C          4.33423       -2.55546        0.69779
H          3.44050       -2.94255        1.21443
H          4.59205       -3.31311       -0.06248
C          5.47662       -2.37757        1.69892
H          5.20914       -1.66935        2.49824
H          5.72608       -3.33331        2.18365
H          6.39624       -2.00622        1.22264
