83
5s_dih_dIad_auhsi.log	Energy: -1046308.2970954
N          1.96721        1.77167        0.15920
C          0.69675        1.38397        0.01284
N         -0.12067        2.44080       -0.00859
C          2.06081        3.23175        0.07331
H          2.41648        3.52608       -0.92934
H          2.75142        3.64327        0.81715
C          0.62515        3.66049        0.31376
H          0.44943        3.94072        1.36703
H          0.32737        4.50268       -0.32017
C         -1.59985        2.39982       -0.00267
C         -2.10729        1.70884        1.27199
C         -2.16485        3.82914       -0.03640
C         -2.12361        1.66461       -1.24413
H         -1.72951        2.24871        2.15675
H         -1.69208        0.68784        1.32012
C         -3.63646        1.66400        1.27842
H         -1.81556        4.34877       -0.94370
H         -1.81010        4.40206        0.83477
C         -3.69721        3.79220       -0.02249
H         -1.71334        0.64033       -1.27099
H         -1.75652        2.17568       -2.14929
C         -3.65281        1.61283       -1.22646
H         -3.97645        1.15219        2.19341
C         -4.18274        3.09298        1.24929
C         -4.12596        0.90152        0.04433
H         -4.06841        4.82876       -0.04124
C         -4.20552        3.03872       -1.25251
H         -4.00047        1.06054       -2.11460
H         -3.84867        3.64635        2.14258
H         -5.28410        3.08030        1.27597
H         -3.74509       -0.13293        0.06267
H         -5.22568        0.83358        0.05205
H         -5.30716        3.02116       -1.25757
H         -3.88971        3.55283       -2.17520
C          3.16337        0.89907        0.09084
C          3.25931        0.22481       -1.28721
C          4.43376        1.73869        0.30481
C          3.11995       -0.16500        1.19803
H          3.29609        0.99944       -2.07192
H          2.34855       -0.37287       -1.47041
C          4.49485       -0.67460       -1.35269
H          4.39401        2.23443        1.28862
H          4.50693        2.52470       -0.46336
C          5.67823        0.84678        0.23096
H          2.20723       -0.77913        1.09822
H          3.06007        0.33651        2.17818
C          4.35340       -1.06693        1.11700
H          4.53265       -1.15760       -2.34207
C          5.74926        0.17592       -1.14212
C          4.40175       -1.74100       -0.25743
H          6.56634        1.48009        0.38248
C          5.61122       -0.22136        1.32297
H          4.28489       -1.83271        1.90605
H          5.83160        0.93579       -1.93698
H          6.65140       -0.45308       -1.20845
H          3.50192       -2.36263       -0.40834
H          5.26854       -2.41867       -0.31493
H          6.50953       -0.85823        1.28514
H          5.59499        0.24908        2.32004
Au         0.13799       -0.57644       -0.18245
H         -0.02009       -2.22821       -0.44806
Si        -1.47913       -2.85439       -0.04412
C         -2.06206       -2.33016        1.66778
H         -1.17121       -2.12408        2.28567
H         -2.59574       -1.36978        1.57914
C         -2.94612       -3.37053        2.36074
H         -2.40783       -4.31527        2.52837
H         -3.27662       -3.00669        3.34501
H         -3.85082       -3.60243        1.77894
C         -0.79317       -4.60760       -0.09061
H         -0.05723       -4.65951       -0.91107
H         -0.21721       -4.76513        0.83815
C         -1.84530       -5.70328       -0.27233
H         -1.37605       -6.69840       -0.26590
H         -2.60230       -5.69604        0.52583
H         -2.37388       -5.60226       -1.23231
C         -2.65297       -2.46643       -1.45927
H         -2.61324       -1.38534       -1.66999
H         -2.25386       -2.96069       -2.36201
C         -4.09934       -2.89406       -1.20134
H         -4.53294       -2.36432       -0.33925
H         -4.73504       -2.67078       -2.07111
H         -4.18710       -3.97259       -1.00345
