63
5u_dime_tbu_au_hsiet3.log	Energy: -803789.8717394
N          2.58859       -0.84204        0.12116
N          2.13708        1.29446        0.04636
C          1.59621        0.05878       -0.06839
Au        -0.36729       -0.39070       -0.47524
H         -1.88123       -0.90068       -0.98547
C          3.49911        1.17743        0.31644
C          3.78341       -0.16667        0.36205
Si        -3.04525       -0.21579       -0.02143
C         -2.73523       -0.46509        1.82074
H         -2.15291       -1.39410        1.94565
H         -2.08370        0.34800        2.18330
C         -4.01490       -0.54157        2.65829
H         -4.64121       -1.39713        2.36491
H         -3.77483       -0.66574        3.72472
H         -4.62862        0.36686        2.56646
C         -4.35174       -1.37656       -0.72125
H         -4.13506       -1.52281       -1.79317
H         -4.21355       -2.36526       -0.24998
C         -5.79040       -0.88526       -0.54834
H         -6.50251       -1.61072       -0.96906
H         -6.06086       -0.74005        0.50798
H         -5.95847        0.07010       -1.06850
C         -3.27020        1.57063       -0.56782
H         -2.28284        2.05465       -0.63221
H         -3.66115        1.55164       -1.60011
C         -4.18812        2.38379        0.34694
H         -3.78036        2.46051        1.36678
H         -4.31231        3.40927       -0.03190
H         -5.19395        1.94485        0.42641
C          5.12835       -0.75357        0.62259
H          5.84976        0.05603        0.77086
H          5.15503       -1.37100        1.52907
H          5.49860       -1.35765       -0.21501
C          4.48648        2.27452        0.52300
H          4.58936        2.92585       -0.35370
H          4.24957        2.90232        1.39120
H          5.47272        1.83811        0.70930
C          2.32580       -2.32940        0.05928
C          1.29495        2.53990       -0.09798
C          3.57413       -3.17609        0.29419
H          4.34519       -3.02149       -0.46907
H          4.00500       -3.03557        1.29191
H          3.26215       -4.22687        0.22543
C          1.80878       -2.67677       -1.33852
H          0.85165       -2.18667       -1.57367
H          2.53934       -2.38173       -2.10591
H          1.65060       -3.76174       -1.41145
C          1.32548       -2.69409        1.15870
H          1.72035       -2.41893        2.14778
H          0.35320       -2.19601        1.02818
H          1.14866       -3.77864        1.14729
C          2.09158        3.83413        0.04535
H          2.54259        3.95246        1.03684
H          2.85913        3.95034       -0.72836
H          1.37966        4.66065       -0.08304
C          0.67682        2.55527       -1.49817
H          1.46347        2.54755       -2.26676
H          0.01523        1.69626       -1.68314
H          0.08171        3.47048       -1.62557
C          0.24021        2.53798        1.01075
H         -0.42242        1.66309        0.95582
H          0.72094        2.53850        2.00012
H         -0.38224        3.44041        0.93016
