81
5u_dif_ad_au_hsiet3.log	Energy: -1169871.8850229
N          1.06737        2.14614        0.19686
N         -1.12577        2.12351        0.19274
C         -0.02089        1.35420        0.01063
Au         0.00632       -0.62767       -0.50706
H          0.04151       -2.15610       -1.18720
C         -0.72122        3.40257        0.49665
C          0.63525        3.41661        0.49909
Si         0.04794       -3.33095       -0.01789
C          1.47704       -3.13486        1.19107
H          2.30103       -2.62831        0.66122
H          1.16366       -2.44644        1.99449
C          1.98024       -4.45710        1.77673
H          2.37084       -5.12426        0.99392
H          2.79891       -4.27967        2.49001
H          1.19237       -5.00347        2.31599
C          0.35052       -4.64560       -1.33156
H         -0.23387       -4.37041       -2.22606
H          1.41006       -4.57556       -1.63431
C         -0.00101       -6.07212       -0.90497
H          0.22729       -6.78573       -1.71058
H          0.55974       -6.39585       -0.01565
H         -1.07282       -6.17468       -0.67748
C         -1.65740       -3.42582        0.76856
H         -1.94061       -2.42381        1.12873
H         -2.37852       -3.67364       -0.02974
C         -1.75253       -4.43028        1.91950
H         -1.09015       -4.15428        2.75404
H         -2.77695       -4.47023        2.31872
H         -1.48578       -5.45114        1.60864
C          2.48818        1.67585        0.06893
C          2.72482        1.17852       -1.36423
C          3.48986        2.80523        0.35532
C          2.73632        0.55107        1.08226
H          2.54746        2.00665       -2.07005
H          2.00244        0.38238       -1.61416
C          4.15095        0.64072       -1.49937
H          3.34108        3.19846        1.37183
H          3.33879        3.63763       -0.34729
C          4.92189        2.27341        0.21458
H          2.01063       -0.26319        0.92576
H          2.57169        0.93758        2.10171
C          4.16014        0.01295        0.92593
H          4.29080        0.27062       -2.52727
C          5.14639        1.76486       -1.20961
C          4.35643       -0.50353       -0.50274
H          5.61261        3.10397        0.42727
C          5.15653        1.13761        1.21099
H          4.30561       -0.80940        1.64498
H          5.01659        2.58450       -1.93525
H          6.17902        1.39830       -1.32343
H          3.64586       -1.32162       -0.71619
H          5.36755       -0.92584       -0.61538
H          6.18927        0.76420        1.12362
H          5.03433        1.50141        2.24447
C         -2.53585        1.62218        0.06657
C         -2.76047        0.50328        1.09157
C         -3.56262        2.73190        0.34045
C         -2.75947        1.10481       -1.36144
H         -2.60532        0.90381        2.10705
H         -2.01327       -0.29322        0.94237
C         -4.17112       -0.06917        0.93900
H         -3.42827        3.56081       -0.36980
H         -3.42476        3.13777        1.35342
C         -4.98216        2.16653        0.20324
H         -2.01953        0.32217       -1.60222
H         -2.59952        1.92941       -2.07552
C         -4.17282        0.53346       -1.49235
H         -4.29974       -0.88716        1.66622
C         -5.19242        1.03621        1.21144
C         -4.35293       -0.60517       -0.48434
H         -5.69165        2.98349        0.40660
C         -5.19348        1.63802       -1.21566
H         -4.30268        0.14972       -2.51658
H         -5.07981        1.41358        2.24117
H         -6.21641        0.63887        1.12692
H         -3.62347       -1.40879       -0.68525
H         -5.35438       -1.05090       -0.59337
H         -6.21755        1.24729       -1.32647
H         -5.08134        2.45277       -1.94973
F          1.40557        4.43975        0.74414
F         -1.51371        4.40939        0.73851
