87
5u_dicf3_ad_au_hsiet3.log	Energy: -1467810.4171204
N          2.01458       -0.32448       -0.12778
N          0.92107        1.56568        0.08770
C          0.77686        0.22618       -0.05362
Au        -0.97161       -0.85598       -0.16851
H         -2.17188       -2.00289       -0.36075
C          2.27334        1.86134        0.15183
C          2.95382        0.69149       -0.08233
Si        -3.69432       -1.50882        0.00310
C         -3.80949       -0.63801        1.66741
H         -3.01555       -1.04365        2.31787
H         -3.57152        0.42906        1.53060
C         -5.17180       -0.79851        2.34798
H         -5.39560       -1.85298        2.56770
H         -5.19408       -0.25653        3.30506
H         -5.99428       -0.40523        1.73192
C         -4.29955       -3.29087        0.05789
H         -3.76038       -3.85587       -0.72157
H         -3.97753       -3.72533        1.02043
C         -5.80820       -3.45455       -0.13784
H         -6.09564       -4.51460       -0.07432
H         -6.39176       -2.91368        0.62174
H         -6.13068       -3.09160       -1.12547
C         -4.31665       -0.55212       -1.48965
H         -3.57249        0.21355       -1.76348
H         -4.34173       -1.25798       -2.33814
C         -5.68648        0.09808       -1.28500
H         -5.66526        0.84738       -0.47888
H         -6.01546        0.61454       -2.19900
H         -6.46357       -0.63793       -1.03089
C          4.37462        0.65838       -0.62410
C          2.92567        3.07773        0.78919
C          2.23616       -1.82377       -0.01875
C          1.70196       -2.51796       -1.27531
C          3.71213       -2.20555        0.15997
C          1.51358       -2.31675        1.25070
H          2.26903       -2.16280       -2.15097
H          0.64493       -2.24726       -1.44472
C          1.82783       -4.03583       -1.11774
H          4.12728       -1.70514        1.04760
H          4.30326       -1.91054       -0.71013
C          3.85125       -3.72883        0.30464
H          0.44705       -2.04006        1.23352
H          1.95522       -1.81709        2.12896
C          1.62244       -3.83713        1.37273
H          1.41946       -4.51689       -2.02042
C          3.30250       -4.40759       -0.95157
C          1.03914       -4.48832        0.11488
H          4.92371       -3.95394        0.41085
C          3.09098       -4.22305        1.53125
H          1.04994       -4.15524        2.25861
H          3.87588       -4.09480       -1.83959
H          3.41234       -5.50065       -0.86955
H         -0.02617       -4.21790        0.00547
H          1.07931       -5.58524        0.20637
H          3.19458       -5.31528        1.63102
H          3.50575       -3.77570        2.44935
C         -0.25164        2.51981       -0.02470
C         -1.15280        2.36266        1.20259
C          0.18130        3.98735       -0.14271
C         -1.02099        2.19410       -1.31890
H         -0.58009        2.62259        2.10732
H         -1.46075        1.30825        1.30583
C         -2.38231        3.26458        1.05641
H          0.84534        4.11638       -1.01076
H          0.71636        4.31339        0.75146
C         -1.04964        4.89408       -0.28006
H         -1.33526        1.13822       -1.33148
H         -0.35039        2.33506       -2.18255
C         -2.26305        3.07950       -1.44067
H         -3.02528        3.12915        1.94108
C         -1.93667        4.72472        0.95552
C         -3.15150        2.87962       -0.20980
H         -0.69137        5.93335       -0.33954
C         -1.83538        4.54138       -1.53908
H         -2.81138        2.78349       -2.34981
H         -1.38792        5.01986        1.86481
H         -2.81544        5.38520        0.88449
H         -3.47981        1.82977       -0.14831
H         -4.06315        3.49146       -0.30000
H         -2.71679        5.19488       -1.63740
H         -1.21603        4.69911       -2.43703
F          4.72348        1.87757       -1.01842
F          5.29161        0.22717        0.22623
F          4.40201       -0.10955       -1.71916
F          4.12878        2.74623        1.24214
F          3.06436        4.12483       -0.00743
F          2.21094        3.44008        1.86171
