95
5u_dime_dipp_au_hsiet3.log	Energy: -1191766.7419767
N          0.64521        1.85091        0.40397
N          2.23896        0.42041        0.34470
C          1.79317        2.53539        0.78687
C          3.54061       -1.04588       -1.09881
C          0.91943        0.56118        0.13158
C          2.81129        1.61902        0.75282
C         -1.10318        2.86612       -0.96018
C         -0.66119        2.42772        0.29856
C          2.94846       -0.80914        0.15310
C          4.20972       -2.26043       -1.26886
H          4.68005       -2.48645       -2.22800
C         -2.72139        3.07089        1.33484
H         -3.36159        3.15774        2.21467
C         -2.39081        3.40784       -1.03308
H         -2.77146        3.75904       -1.99475
C         -1.44406        2.51996        1.46322
C          3.00679       -1.72141        1.21866
C         -3.18970        3.51095        0.09978
H         -4.19034        3.94214        0.02140
C          4.28308       -3.18751       -0.23373
H          4.81201       -4.13077       -0.38730
C          3.68865       -2.92098        0.99502
H          3.75483       -3.65963        1.79687
C          3.42189       -0.05622       -2.24145
H          3.06378        0.89843       -1.82367
C         -0.95266        1.98812        2.79554
H          0.14524        1.91310        2.74212
C         -1.28766        2.90960        3.96479
H         -0.81466        2.54042        4.88680
H         -2.37069        2.95684        4.15496
H         -0.93329        3.93619        3.78750
C          4.76318        0.22152       -2.91652
H          4.65280        1.01101       -3.67487
H          5.15564       -0.66920       -3.43012
H          5.52264        0.54979       -2.19092
C         -1.48806        0.57363        3.02581
H         -1.10830        0.15931        3.97223
H         -2.58870        0.57361        3.07171
H         -1.18188       -0.10158        2.21217
C          2.37477       -0.53041       -3.25130
H          2.67253       -1.48604       -3.71012
H          1.39499       -0.68205       -2.77044
H          2.24821        0.20777       -4.05814
C         -0.24780        2.75862       -2.20670
H          0.72684        2.33877       -1.91309
C         -0.87051        1.79527       -3.21728
H         -1.02267        0.79812       -2.77332
H         -1.84776        2.15865       -3.57104
H         -0.21835        1.67918       -4.09586
C          0.01524        4.13066       -2.82690
H          0.48067        4.81829       -2.10483
H          0.68930        4.03889       -3.69184
H         -0.91490        4.60077       -3.18135
C          2.33532       -1.45306        2.55090
H          1.96264       -0.41653        2.53851
C          3.31194       -1.57052        3.71983
H          2.81501       -1.30207        4.66426
H          3.69366       -2.59694        3.83033
H          4.17919       -0.90560        3.59062
C          1.12434       -2.36880        2.73524
H          0.41069       -2.25264        1.90407
H          1.42658       -3.42702        2.77072
H          0.59805       -2.13687        3.67375
Au        -0.38106       -0.84081       -0.51711
H         -1.33268       -2.04474       -1.20361
Si        -2.84189       -1.92387       -0.51047
C         -3.57635       -3.00209       -1.86779
H         -3.16731       -2.64988       -2.83037
H         -3.18931       -4.02734       -1.73517
C         -5.10493       -2.99959       -1.92245
H         -5.50238       -1.99236       -2.12012
H         -5.46835       -3.65413       -2.72877
H         -5.55813       -3.35668       -0.98568
C         -3.56839       -0.18418       -0.49312
H         -2.81663        0.53636       -0.13227
H         -3.77342        0.10052       -1.53962
C         -4.83042       -0.06371        0.36291
H         -5.22647        0.96216        0.32157
H         -5.63357       -0.73935        0.03228
H         -4.62308       -0.28813        1.42062
C         -2.73200       -2.77513        1.16306
H         -1.89828       -3.49608        1.11147
H         -2.43400       -2.02615        1.91540
C         -4.01397       -3.49141        1.59297
H         -4.28673       -4.29257        0.88977
H         -3.88909       -3.95736        2.58187
H         -4.87167       -2.80571        1.66247
C          1.77496        3.97655        1.13290
H          1.12781        4.17481        2.00113
H          2.78677        4.32470        1.37407
H          1.39281        4.58136        0.29652
C          4.25694        1.73792        1.05662
H          4.87185        1.49181        0.17749
H          4.50023        2.76019        1.37108
H          4.55160        1.04942        1.86319
