59
5u_dih_dIphme_auhsi.log	Energy: -896253.5840960
N         -2.44699        1.69292       -0.03400
C         -1.14889        1.32624       -0.01761
N         -0.44616        2.47992       -0.02967
C         -3.54940        0.78505       -0.03216
C         -4.52706        0.89465        0.95452
C         -5.59593        0.00501        0.95609
H         -6.35753        0.08956        1.73513
C         -5.70642       -1.00426       -0.01001
C         -4.70740       -1.09191       -0.98771
H         -4.77378       -1.86544       -1.75666
C         -3.63754       -0.20241       -1.01142
C         -6.87690       -1.94019       -0.01367
H         -7.72580       -1.49430       -0.55787
H         -7.22255       -2.15734        1.00682
H         -6.63363       -2.89113       -0.50716
C          0.98199        2.53855       -0.00053
C          1.68396        2.94187       -1.13414
C          3.07503        2.96007       -1.10292
H          3.62406        3.27399       -1.99408
C          3.78332        2.57494        0.04398
C          3.05051        2.18929        1.17409
H          3.57929        1.90778        2.08789
C          1.65900        2.16961        1.15998
C          5.28190        2.54889        0.04867
H          5.70201        3.38166       -0.53280
H          5.65300        1.61541       -0.40669
H          5.68522        2.60194        1.06909
C         -2.56053        3.06963       -0.05292
H         -3.52593        3.56713       -0.08315
C         -1.29550        3.56751       -0.05177
H         -0.92631        4.58933       -0.05760
Au        -0.33880       -0.52836       -0.01277
H          0.22855       -2.11129       -0.04414
H         -2.88100       -0.26263       -1.79681
H         -4.44171        1.66055        1.72860
H          1.09355        1.87909        2.04793
H          1.14228        3.22694       -2.03858
Si         1.89559       -2.03352        0.00962
C          2.02284       -3.86076       -0.42275
H          1.20328       -4.38991        0.09263
H          1.81469       -3.96464       -1.50199
C          3.36200       -4.50668       -0.06161
H          3.54625       -4.47893        1.02311
H          3.37847       -5.56433       -0.36414
H          4.21313       -4.01468       -0.55559
C          2.39679       -1.63931        1.77934
H          1.84730       -0.74143        2.10675
H          2.03863       -2.46287        2.42102
C          3.90003       -1.42052        1.96117
H          4.14289       -1.22121        3.01588
H          4.49108       -2.29593        1.65322
H          4.25522       -0.55897        1.37535
C          2.62412       -0.89068       -1.29725
H          1.94672       -0.89344       -2.16830
H          2.60310        0.13834       -0.90150
C          4.04024       -1.26348       -1.74330
H          4.07152       -2.25379       -2.22163
H          4.41775       -0.53703       -2.47892
H          4.75235       -1.27895       -0.90468
