91
5u_diph_mes_au_hsiet3.log	Energy: -1284227.4463290
N          1.69582       -0.66122       -0.02743
N          0.54624        1.15611        0.02855
C          0.43821       -0.18600       -0.00739
Au        -1.29231       -1.22495       -0.06329
H         -2.65470       -2.20670       -0.14738
C          1.99490       -2.06238       -0.03097
C          2.37341       -2.66986        1.17340
C          1.88600       -2.76983       -1.23568
C          2.65285       -4.03632        1.14406
C          2.17610       -4.13515       -1.20884
C          2.56449       -4.78547       -0.03369
H          2.94759       -4.53160        2.07317
H          2.10133       -4.70697       -2.13772
C         -0.59744        2.01734        0.02413
C         -1.29947        2.20613        1.22287
C         -0.98434        2.61763       -1.18112
C         -2.42735        3.02886        1.18732
C         -2.11686        3.43418       -1.16040
C         -2.84888        3.65567        0.01011
H         -2.98656        3.19514        2.11234
H         -2.43654        3.91123       -2.09081
C          1.47481       -2.08922       -2.50857
H          0.39529       -1.86311       -2.51146
H          1.99905       -1.13131       -2.65075
H          1.68303       -2.72607       -3.37791
C          2.47855       -1.87635        2.44042
H          3.34725       -1.19866        2.41148
H          1.58472       -1.25379        2.60245
H          2.59769       -2.53735        3.30841
C          2.90769       -6.24521       -0.03849
H          2.59549       -6.73544        0.89465
H          2.43567       -6.77039       -0.88018
H          3.99727       -6.38597       -0.13071
C         -0.20735        2.38772       -2.44121
H          0.77598        2.88286       -2.39291
H         -0.02302        1.31526       -2.61089
H         -0.74264        2.78707       -3.31207
C         -0.85432        1.55078        2.49695
H         -1.02626        0.46199        2.47043
H          0.22312        1.69359        2.67421
H         -1.39951        1.95659        3.35884
C         -4.03827        4.56878        0.00895
H         -3.72309        5.61344        0.16611
H         -4.57496        4.53249       -0.94958
H         -4.74503        4.31694        0.81205
C          1.88241        1.54539        0.02118
C          2.61873        0.38069        0.00184
Si        -3.97616       -1.19915       -0.00924
C         -4.07699       -0.55403        1.75523
H         -3.51893       -1.24786        2.40653
H         -3.53025        0.40370        1.78587
C         -5.50288       -0.37845        2.28225
H         -6.04621       -1.33485        2.31262
H         -5.49521        0.02171        3.30733
H         -6.09232        0.31698        1.66586
C         -5.12041       -2.65230       -0.36425
H         -4.67433       -3.23493       -1.18838
H         -5.09607       -3.31667        0.51732
C         -6.55908       -2.27329       -0.71890
H         -7.17101       -3.17355       -0.87917
H         -7.04641       -1.68644        0.07389
H         -6.60552       -1.68217       -1.64598
C         -4.02104        0.14492       -1.32610
H         -3.07184        0.70592       -1.29525
H         -4.06098       -0.34222       -2.31567
C         -5.18470        1.12273       -1.14807
H         -5.12085        1.65018       -0.18459
H         -5.16930        1.89070       -1.93623
H         -6.16531        0.62646       -1.19425
C          4.07050        0.18829        0.07789
C          4.73609       -0.74407       -0.73039
C          4.81273        0.95572        0.98971
C          6.11514       -0.90383       -0.62571
H          4.17840       -1.34449       -1.44979
C          6.19046        0.79518        1.08614
H          4.30000        1.67844        1.62800
C          6.84495       -0.13644        0.28016
H          6.62317       -1.63183       -1.26169
H          6.75668        1.39684        1.80034
H          7.92676       -0.26443        0.35919
C          2.32829        2.94090       -0.04327
C          1.75631        3.93802        0.75937
C          3.35075        3.28916       -0.94039
C          2.19831        5.25478        0.66377
H          0.96787        3.68636        1.46941
C          3.79156        4.60495       -1.02782
H          3.79667        2.51916       -1.57353
C          3.21514        5.59159       -0.22765
H          1.74719        6.02236        1.29614
H          4.58685        4.86342       -1.73024
H          3.56014        6.62539       -0.29944
