67
5u_diome_ptolu_au_hsiet3.log	Energy: -1039720.3956432
N          2.40185        0.60528       -0.06873
N          0.67410        1.88917       -0.03969
C          1.05876        0.59025       -0.04803
Au        -0.20933       -0.98519        0.00391
H         -1.16920       -2.36446        0.08488
C          3.23293       -0.55291       -0.07913
C          3.09234       -1.51474        0.91961
C          4.18727       -0.70824       -1.08421
C          3.89975       -2.64876        0.89499
C          4.99418       -1.83977       -1.08489
C          4.86285       -2.83336       -0.10388
H          3.78734       -3.40066        1.67982
H          5.74200       -1.95865       -1.87297
C         -0.68739        2.31872       -0.07200
C         -1.25315        2.93594        1.04133
C         -1.44626        2.09016       -1.21726
C         -2.59376        3.30401        1.00790
C         -2.78817        2.46029       -1.23459
C         -3.38817        3.06371       -0.12262
H         -3.03681        3.78474        1.88363
H         -3.37948        2.28444       -2.13641
C          5.72214       -4.06094       -0.13874
H          5.69616       -4.60175        0.81686
H          5.37743       -4.75392       -0.92354
H          6.76888       -3.81111       -0.36557
C         -4.84390        3.42129       -0.12635
H         -5.02072        4.39429        0.35418
H         -5.24881        3.46251       -1.14661
H         -5.42822        2.67274        0.43434
C          1.77430        2.72941       -0.04683
C          2.88318        1.92072       -0.07011
Si        -2.75641       -1.85139        0.05924
C         -3.12802       -0.51913        1.33644
H         -2.45595       -0.67688        2.19727
H         -2.84232        0.45472        0.90550
C         -4.58156       -0.48608        1.81527
H         -4.86449       -1.41520        2.33232
H         -4.73501        0.33955        2.52681
H         -5.29135       -0.33920        0.98749
C         -3.34928       -3.56699        0.55908
H         -2.71170       -4.30891        0.04881
H         -3.14708       -3.68942        1.63753
C         -4.82009       -3.84772        0.24557
H         -5.10694       -4.85342        0.58736
H         -5.49812       -3.13287        0.73520
H         -5.01900       -3.80601       -0.83610
C         -3.18236       -1.39477       -1.71530
H         -2.42823       -0.67871       -2.08099
H         -3.06226       -2.30144       -2.33328
C         -4.58239       -0.80144       -1.88363
H         -4.69239        0.13661       -1.31842
H         -4.78714       -0.57226       -2.94040
H         -5.37220       -1.48733       -1.54265
H          4.29627        0.05546       -1.85569
H          2.36488       -1.36633        1.72070
H         -0.64548        3.11960        1.92916
H         -0.98016        1.63135       -2.09174
O          4.17934        2.21333       -0.14148
O          1.56821        4.03219       -0.05474
C          4.93050        2.06671        1.06201
H          5.95632        2.37399        0.82750
H          4.52092        2.71308        1.85499
H          4.93295        1.01933        1.40176
C          2.69951        4.88276       -0.15221
H          3.33804        4.79070        0.74044
H          3.29028        4.65183       -1.05071
H          2.30663        5.90338       -0.21519
