65
5u_diome_tbu_au_hsiet3.log	Energy: -898004.4234412
N          2.23466       -0.97438        0.08955
N          1.83909        1.17383       -0.09889
C          1.26105       -0.05406       -0.12653
Au        -0.71456       -0.46733       -0.46252
H         -2.25427       -0.96415       -0.90611
C          3.19686        1.02374        0.14091
C          3.44488       -0.31616        0.25074
Si        -3.37217       -0.14925        0.01155
C         -3.03615       -0.24363        1.86368
H         -2.48651       -1.17966        2.06257
H         -2.34729        0.57255        2.14004
C         -4.30065       -0.19469        2.72591
H         -4.96496       -1.04722        2.52042
H         -4.04394       -0.23379        3.79498
H         -4.88106        0.72577        2.56404
C         -4.73643       -1.31441       -0.55854
H         -4.54728       -1.56555       -1.61613
H         -4.62752       -2.26131       -0.00153
C         -6.15093       -0.75117       -0.40716
H         -6.89938       -1.48236       -0.74715
H         -6.39356       -0.49924        0.63578
H         -6.29230        0.15878       -1.01006
C         -3.53750        1.58836       -0.69151
H         -2.53383        2.02489       -0.81703
H         -3.95052        1.49244       -1.71085
C         -4.40379        2.51695        0.16168
H         -3.97267        2.66716        1.16359
H         -4.49471        3.50889       -0.30557
H         -5.42446        2.12882        0.29698
C          1.98318       -2.45816        0.16230
C          1.08472        2.45957       -0.30896
C          3.26943       -3.24113        0.42144
H          3.99473       -3.13711       -0.39548
H          3.75504       -2.95938        1.36269
H          2.99110       -4.30241        0.48205
C          1.40941       -2.92267       -1.17610
H          0.43525       -2.46131       -1.40087
H          2.09867       -2.68570       -1.99968
H          1.26334       -4.01153       -1.15145
C          1.02414       -2.72741        1.32214
H          1.45314       -2.37384        2.27108
H          0.04978       -2.23598        1.17871
H          0.84620       -3.80861        1.40569
C          2.00130        3.67964       -0.23226
H          2.45482        3.80233        0.75933
H          2.79833        3.65808       -0.98428
H          1.37476        4.56266       -0.42047
C          0.45708        2.43062       -1.70278
H          1.23383        2.33462       -2.47523
H         -0.25230        1.59849       -1.82623
H         -0.08769        3.36886       -1.87863
C          0.03536        2.58788        0.79541
H         -0.69047        1.76250        0.77719
H          0.51348        2.60058        1.78591
H         -0.51754        3.52938        0.66836
C          5.59117       -0.78701       -0.54016
H          6.49803       -1.27762       -0.16766
H          5.24364       -1.29992       -1.45137
H          5.80757        0.26684       -0.77229
C          4.69786        2.20471        1.48565
H          5.21783        1.29334        1.81763
H          5.42102        3.01942        1.36252
H          3.94487        2.49216        2.23715
O          4.61939       -0.89005        0.49768
O          4.08872        2.00817        0.21222
