57
5u_dih_dIterbutyl_auhsi.log	Energy: -754547.0233689
N         -2.92254        0.57627        0.22085
C         -1.84858       -0.22301        0.02111
N         -2.28851       -1.49537        0.16418
C         -3.63377       -1.49145        0.45226
H         -4.21429       -2.39207        0.61153
C         -4.03092       -0.19366        0.48702
H         -5.01367        0.21901        0.68029
C         -2.91969        2.07304        0.16478
C         -1.44920       -2.72817        0.03909
C         -0.86554       -2.78792       -1.37161
H         -0.21510       -1.92596       -1.58346
H         -0.26615       -3.70215       -1.48559
H         -1.66610       -2.80372       -2.12543
C         -2.32242       -3.95859        0.26615
H         -1.69198       -4.85260        0.16947
H         -2.76172       -3.97564        1.27412
H         -3.12411       -4.04131       -0.48198
C         -0.35862       -2.68980        1.10894
H          0.25566       -3.59905        1.04496
H          0.30446       -1.82155        0.98252
H         -0.79990       -2.64012        2.11519
C         -1.96783        2.60540        1.23474
H         -0.93013        2.28593        1.05275
H         -1.98689        3.70419        1.23119
H         -2.26634        2.25659        2.23421
C         -4.32709        2.58897        0.44974
H         -4.30810        3.68609        0.40701
H         -5.05446        2.24531       -0.30004
H         -4.67726        2.30679        1.45330
C         -2.50165        2.51504       -1.23655
H         -3.17530        2.09548       -1.99787
H         -2.54135        3.61109       -1.30489
H         -1.47350        2.20192       -1.47607
Au         0.04418        0.38718       -0.42703
H          1.50472        1.02391       -0.95790
Si         2.74653        0.36099       -0.07804
C          3.96254        1.60650       -0.79304
H          3.69195        1.77628       -1.84911
H          3.79753        2.57119       -0.28232
C          5.42949        1.18194       -0.69796
H          5.62146        0.25571       -1.26068
H          6.08643        1.95710       -1.11973
H          5.75180        1.01286        0.34011
C          3.03006       -1.39520       -0.69163
H          2.06681       -1.92916       -0.72371
H          3.36843       -1.32714       -1.74027
C          4.03158       -2.18481        0.15383
H          4.18990       -3.19070       -0.26282
H          5.01608       -1.69575        0.20035
H          3.67758       -2.31271        1.18847
C          2.49647        0.53735        1.78082
H          1.87655        1.43316        1.95712
H          1.89766       -0.31673        2.14034
C          3.80278        0.64935        2.57222
H          4.37735        1.54161        2.28222
H          3.59843        0.73124        3.65006
H          4.45360       -0.22616        2.42990
