89
5u_dih_dIdipp_auhsi.log	Energy: -1142503.7860817
N         -2.26283        0.82487        0.60454
C         -0.94013        0.79173        0.35572
N         -0.45265        1.96144        0.81685
C         -3.16628       -0.23470        0.25728
C         -3.34953       -1.28099        1.17528
C         -4.21949       -2.30897        0.80133
H         -4.39152       -3.14288        1.48537
C         -4.86756       -2.28597       -0.42909
C         -4.65880       -1.23562       -1.31731
H         -5.17140       -1.23593       -2.28147
C         -3.80033       -0.18139       -0.99492
C         -3.53554        0.93347       -1.98781
H         -2.98923        1.73267       -1.46219
C         -2.61872       -1.33545        2.50227
H         -2.06473       -0.39133        2.62421
C          0.92899        2.33986        0.73735
C          1.39462        2.91472       -0.45587
C          2.75080        3.25183       -0.51354
H          3.15314        3.70308       -1.42327
C          3.59070        3.02976        0.57167
C          3.09547        2.46215        1.74242
H          3.76790        2.29702        2.58628
C          1.74947        2.10394        1.85429
C          1.22148        1.43471        3.10879
H          0.12479        1.53797        3.10870
C          0.49149        3.16832       -1.64694
H         -0.53146        2.87298       -1.36633
C         -2.61223        2.00919        1.21891
H         -3.63781        2.22873        1.50192
C         -1.46582        2.73094        1.35128
H         -1.27924        3.71429        1.77369
C         -3.58282       -1.44963        3.68190
H         -4.31145       -0.62545        3.68725
H         -4.14709       -2.39431        3.65556
H         -3.03048       -1.42360        4.63333
C         -1.59011       -2.46739        2.50172
H         -2.07692       -3.45021        2.40589
H         -0.88602       -2.36176        1.66078
H         -1.01078       -2.46871        3.43765
C         -2.63394        0.43528       -3.11917
H         -3.12511       -0.36472       -3.69452
H         -2.39374        1.25346       -3.81532
H         -1.68650        0.03081       -2.72762
C         -4.82431        1.55058       -2.52686
H         -4.59409        2.40639       -3.17895
H         -5.40247        0.83118       -3.12640
H         -5.47289        1.90621       -1.71260
C          1.53368       -0.06288        3.07897
H          1.11969       -0.56709        3.96551
H          1.10372       -0.54038        2.18528
H          2.62116       -0.23812        3.06718
C          1.73421        2.08624        4.39007
H          2.81678        1.93826        4.52247
H          1.53777        3.16847        4.40080
H          1.23913        1.64099        5.26573
C          0.89808        2.30635       -2.84207
H          0.86707        1.23434       -2.58877
H          0.21530        2.47138       -3.68901
H          1.91748        2.54445       -3.18348
C          0.45035        4.65250       -2.01029
H          0.13927        5.26803       -1.15321
H          1.43472        5.01620       -2.34280
H         -0.26051        4.82692       -2.83195
H          4.64540        3.30704        0.50783
H         -5.54452       -3.09900       -0.70072
Au         0.09821       -0.67953       -0.55856
H          0.82893       -1.90969       -1.44414
Si         2.39680       -2.05781       -0.90371
C          2.32363       -3.10790        0.65493
H          1.54955       -2.69817        1.32371
H          1.96535       -4.11043        0.36284
C          3.65527       -3.20052        1.40164
H          3.99294       -2.21193        1.74894
H          3.56388       -3.84345        2.28979
H          4.45691       -3.62235        0.77676
C          3.29941       -0.41512       -0.73279
H          2.89262        0.27732       -1.48855
H          3.03663        0.03059        0.24112
C          4.81905       -0.50592       -0.88631
H          5.27638        0.48528       -0.74589
H          5.27619       -1.18295       -0.14941
H          5.10904       -0.85934       -1.88718
C          2.88388       -3.02860       -2.44048
H          2.03363       -3.67266       -2.72239
H          3.00451       -2.30966       -3.26955
C          4.14333       -3.88021       -2.26860
H          4.01232       -4.64522       -1.48811
H          4.38702       -4.41000       -3.20158
H          5.02337       -3.27820       -1.99753
