77
5u_dicf3_mes_au_hsiet3.log	Energy: -1417038.6719612
N          2.08650       -0.01323        0.00549
N          0.57486        1.51899       -0.01080
C          0.75904        0.18684       -0.01768
Au        -0.69860       -1.20942       -0.05843
H         -1.80949       -2.46963       -0.10528
C          2.65463       -1.33719       -0.00146
C          2.85647       -1.98130        1.22637
C          2.91231       -1.94308       -1.23815
C          3.37710       -3.27481        1.18762
C          3.43205       -3.23760       -1.21571
C          3.68152       -3.91537       -0.01802
H          3.54908       -3.79899        2.13128
H          3.64678       -3.73255       -2.16635
C         -0.74250        2.10028       -0.01899
C         -1.37592        2.33004        1.20961
C         -1.35847        2.34072       -1.25450
C         -2.66864        2.85558        1.17238
C         -2.65249        2.86322       -1.23118
C         -3.32008        3.13660       -0.03308
H         -3.18265        3.04954        2.11760
H         -3.15441        3.06237       -2.18164
C          2.61328       -1.24399       -2.53068
H          1.53623       -1.02878       -2.62773
H          3.14998       -0.28735       -2.61027
H          2.90666       -1.86499       -3.38625
C          2.50245       -1.32018        2.52482
H          3.04307       -0.37173        2.65859
H          1.42407       -1.09679        2.57804
H          2.75037       -1.97004        3.37333
C          4.28295       -5.28808       -0.02535
H          3.96618       -5.87385        0.84874
H          4.01307       -5.84390       -0.93401
H          5.38322       -5.22381        0.00476
C         -0.66999        2.02103       -2.54720
H          0.27135        2.58009       -2.65191
H         -0.42377        0.94847       -2.61623
H         -1.30799        2.27479       -3.40304
C         -0.71243        1.98513        2.50872
H         -0.51946        0.90172        2.58025
H          0.25274        2.49938        2.62204
H         -1.34597        2.26908        3.35835
C         -4.69354        3.73672       -0.03894
H         -4.63164        4.83572        0.02287
H         -5.23990        3.49213       -0.96040
H         -5.28811        3.39720        0.82111
C          1.79523        2.17623        0.01486
C          2.75871        1.19892        0.02961
Si        -3.33193       -1.78452       -0.00152
C         -3.52913       -0.85343        1.62048
H         -2.85035       -1.30943        2.36139
H         -3.16482        0.17593        1.46088
C         -4.95941       -0.83959        2.16596
H         -5.31814       -1.85391        2.39615
H         -5.01501       -0.25765        3.09821
H         -5.67097       -0.38897        1.45801
C         -4.11626       -3.49424       -0.01333
H         -3.56863       -4.11296       -0.74452
H         -3.92764       -3.95619        0.97144
C         -5.61048       -3.50486       -0.34269
H         -6.00875       -4.52976       -0.30702
H         -6.20091       -2.90253        0.36371
H         -5.80584       -3.11783       -1.35421
C         -3.69093       -0.76835       -1.54306
H         -2.86719       -0.05062       -1.69234
H         -3.67138       -1.44790       -2.41250
C         -5.01545       -0.00529       -1.47094
H         -5.01316        0.72304       -0.64625
H         -5.19194        0.55752       -2.40005
H         -5.87856       -0.67207       -1.32667
C          4.27261        1.20802        0.06286
C          1.82020        3.68955        0.02507
F          4.75522        0.61586       -1.02816
F          4.70598        0.52519        1.12122
F          4.76867        2.42517        0.12763
F          3.04069        4.17801       -0.00287
F          1.15908        4.15956       -1.03280
F          1.20963        4.14657        1.11824
