77
5u_diph_tbu_au_hsiet3.log	Energy: -1043992.0934682
N          1.20709       -1.19312       -0.13560
N          0.95399        0.97688       -0.23442
C          0.29148       -0.20456       -0.27939
Au        -1.72634       -0.47120       -0.52186
H         -3.31981       -0.84400       -0.89227
C          2.30996        0.73164       -0.05357
C          2.46878       -0.62800        0.00586
Si        -4.32257       -0.00783        0.13140
C         -3.88763       -0.22548        1.95233
H         -3.39380       -1.20539        2.06928
H         -3.12861        0.52681        2.22614
C         -5.09333       -0.13950        2.89228
H         -5.82643       -0.93334        2.68542
H         -4.77851       -0.25371        3.94024
H         -5.61648        0.82506        2.81294
C         -5.79521       -1.04812       -0.41099
H         -5.68506       -1.25418       -1.48929
H         -5.71955       -2.02865        0.09059
C         -7.15670       -0.40252       -0.14587
H         -7.97200       -1.06379       -0.47524
H         -7.32103       -0.19119        0.92110
H         -7.26973        0.54571       -0.69322
C         -4.41086        1.77291       -0.47017
H         -3.38844        2.14936       -0.63227
H         -4.88572        1.76001       -1.46676
C         -5.16300        2.70749        0.47920
H         -4.66650        2.77525        1.45957
H         -5.21320        3.72715        0.06891
H         -6.19816        2.37896        0.65595
C          0.83324       -2.65451       -0.13538
C          0.25514        2.30678       -0.35601
C          2.04573       -3.56627        0.02540
H          2.76837       -3.46014       -0.79183
H          2.56969       -3.41496        0.97596
H          1.67335       -4.59995        0.00992
C          0.17938       -2.99080       -1.47666
H         -0.75625       -2.43534       -1.64501
H          0.86420       -2.76733       -2.30770
H         -0.06131       -4.06251       -1.50724
C         -0.10282       -2.91536        1.04591
H          0.38775       -2.64929        1.99375
H         -1.04149       -2.34543        0.97237
H         -0.36053       -3.98312        1.07936
C          1.22473        3.48392       -0.31493
H          1.77111        3.55472        0.63219
H          1.95116        3.46327       -1.13562
H          0.62389        4.39767       -0.42336
C         -0.46677        2.35890       -1.70387
H          0.24979        2.23765       -2.52931
H         -1.23710        1.58004       -1.80555
H         -0.95794        3.33552       -1.81732
C         -0.70447        2.45325        0.82593
H         -1.46470        1.65942        0.84566
H         -0.15197        2.42124        1.77650
H         -1.22328        3.42028        0.76261
C          3.78739       -1.27181        0.19161
C          4.59150       -1.56140       -0.91590
C          4.28876       -1.49027        1.47925
C          5.86500       -2.09581       -0.73859
H          4.21261       -1.36712       -1.92233
C          5.56245       -2.02459        1.65562
H          3.67325       -1.23983        2.34680
C          6.34965       -2.33289        0.54699
H          6.48502       -2.32297       -1.60850
H          5.94524       -2.19569        2.66407
H          7.34919       -2.75077        0.68573
C          3.44039        1.67662        0.07529
C          3.84324        2.12143        1.33920
C          4.18582        2.04275       -1.05033
C          4.95417        2.95042        1.47097
H          3.27910        1.81449        2.22343
C          5.29691        2.87151       -0.91759
H          3.88958        1.67490       -2.03576
C          5.67889        3.33061        0.34216
H          5.26013        3.29628        2.46070
H          5.87153        3.15574       -1.80178
H          6.55136        3.97945        0.44589
