89
5u_dicl_dipp_au_hsiet3.log	Energy: -1718939.1498439
N          0.74970        1.65657        0.20026
N          2.12778       -0.00022        0.20523
C          1.99591        2.18145        0.49337
C          3.13034       -1.75328       -1.15017
C          0.83419        0.32256        0.02044
C          2.86971        1.12875        0.50108
C         -0.88090        2.78884       -1.20914
C         -0.46469        2.40887        0.07565
C          2.64125       -1.33479        0.09681
C          3.59301       -3.06838       -1.23782
H          3.97975       -3.44048       -2.18884
C         -2.37242        3.41974        1.09701
H         -2.96109        3.67638        1.97948
C         -2.08474        3.49477       -1.30153
H         -2.44636        3.81250       -2.28189
C         -1.17753        2.71251        1.24762
C          2.60417       -2.15198        1.23629
C         -2.82055        3.80588       -0.16371
H         -3.75539        4.36307       -0.25844
C          3.56817       -3.90996       -0.12969
H          3.93718       -4.93408       -0.21976
C          3.08086       -3.45766        1.09235
H          3.07219       -4.13110        1.95224
C          3.12853       -0.84463       -2.36308
H          2.87284        0.17226       -2.02503
C         -0.70366        2.24775        2.61056
H          0.37490        2.03586        2.53756
C         -0.87304        3.31142        3.69082
H         -0.41836        2.97018        4.63251
H         -1.93269        3.52140        3.90137
H         -0.38907        4.25542        3.40068
C          4.50552       -0.76117       -3.01830
H          4.49075       -0.03935       -3.84859
H          4.82044       -1.73079       -3.43290
H          5.26954       -0.43724       -2.29645
C         -1.39671        0.93768        2.99063
H         -1.03276        0.56924        3.96184
H         -2.48654        1.07845        3.06720
H         -1.20831        0.15552        2.23871
C          2.04698       -1.27452       -3.35556
H          2.24161       -2.28633       -3.74355
H          1.05144       -1.28463       -2.88253
H          2.01029       -0.58587       -4.21353
C         -0.07543        2.47552       -2.45348
H          0.80509        1.88778       -2.15066
C         -0.87216        1.61422       -3.43221
H         -1.21153        0.68068       -2.95474
H         -1.76167        2.14266       -3.80810
H         -0.25358        1.34512       -4.30141
C          0.44137        3.75823       -3.10578
H          1.03966        4.35078       -2.39787
H          1.07335        3.52099       -3.97486
H         -0.38638        4.39238       -3.45885
C          2.06747       -1.66560        2.56729
H          1.77657       -0.60945        2.45195
C          3.14079       -1.71982        3.65393
H          2.75357       -1.31002        4.59902
H          3.46653       -2.75291        3.84949
H          4.02750       -1.13662        3.36486
C          0.80835       -2.43592        2.96468
H          0.03395       -2.36051        2.18486
H          1.02241       -3.50440        3.12124
H          0.39011       -2.03844        3.90198
Au        -0.67363       -0.91865       -0.49039
H         -1.81504       -2.01090       -1.05876
Si        -3.25626       -1.64570       -0.29750
C         -4.19636       -2.72331       -1.52048
H         -3.80484       -2.50499       -2.52886
H         -3.93426       -3.77634       -1.31831
C         -5.71312       -2.52506       -1.49892
H         -5.99186       -1.49416       -1.76546
H         -6.20380       -3.19021       -2.22507
H         -6.15010       -2.74249       -0.51292
C         -3.74452        0.17180       -0.39716
H         -2.88463        0.80993       -0.13608
H         -3.97106        0.39735       -1.45362
C         -4.92793        0.53003        0.50368
H         -5.18843        1.59324        0.39145
H         -5.83019       -0.05518        0.27086
H         -4.69078        0.36528        1.56606
C         -3.14946       -2.36863        1.43504
H         -2.42067       -3.19651        1.40196
H         -2.71070       -1.60888        2.10300
C         -4.48273       -2.87196        1.99286
H         -4.90093       -3.68203        1.37676
H         -4.35421       -3.27204        3.00968
H         -5.23894       -2.07483        2.05036
Cl         2.25746        3.82239        0.77290
Cl         4.52855        1.08662        0.79127
