89
5u_diome_ad_au_hsiet3.log	Energy: -1189016.8781267
N          1.15486       -1.87506        0.08311
N         -1.03799       -1.93391        0.09941
C          0.03566       -1.12450       -0.08179
Au        -0.00219        0.87096       -0.54970
H          0.02291        2.42066       -1.16978
C         -0.58757       -3.21459        0.38517
C          0.77911       -3.17863        0.36952
Si        -0.10200        3.50412        0.08694
C         -1.95170        3.79515        0.24804
H         -2.40961        3.53472       -0.72117
H         -2.35249        3.06633        0.97392
C         -2.34445        5.22155        0.63784
H         -2.01315        5.95232       -0.11523
H         -3.43717        5.31750        0.72279
H         -1.91521        5.52514        1.60413
C          0.80925        4.80150       -0.92854
H          1.70476        4.31401       -1.35178
H          0.17166        5.05311       -1.79421
C          1.21659        6.06561       -0.17083
H          1.71266        6.78060       -0.84403
H          0.35407        6.58380        0.27414
H          1.92507        5.84209        0.64104
C          0.76901        3.09829        1.71094
H          0.49074        2.08267        2.03680
H          1.85498        3.06917        1.51591
C          0.44122        4.09576        2.82646
H         -0.62780        4.07369        3.08657
H          1.00218        3.85244        3.74120
H          0.69483        5.13076        2.55469
C          2.54438       -1.32042       -0.00824
C          2.71790       -0.23768        1.06751
C          3.62209       -2.39081        0.22667
C          2.76820       -0.73358       -1.41064
H          2.57068       -0.69172        2.06155
H          1.94257        0.53568        0.94960
C          4.10154        0.40288        0.95784
H          3.53640       -3.18630       -0.52789
H          3.48920       -2.85917        1.21120
C          5.01668       -1.75744        0.13198
H          1.99601        0.02099       -1.63863
H          2.65878       -1.53564       -2.15937
C          4.15268       -0.08891       -1.49812
H          4.18667        1.19229        1.72231
C          5.16928       -0.66598        1.19166
C          4.26836        1.01085       -0.43806
H          5.75980       -2.55108        0.30727
C          5.22216       -1.15475       -1.25761
H          4.27526        0.34672       -2.50248
H          5.06290       -1.09391        2.20208
H          6.17591       -0.22130        1.13637
H          3.49943        1.78535       -0.61013
H          5.24662        1.51117       -0.51846
H          6.22819       -0.71216       -1.33588
H          5.15694       -1.93862       -2.03027
C         -2.45630       -1.47144       -0.04538
C         -2.67853       -0.98468       -1.48588
C         -3.46579       -2.59570        0.23612
C         -2.73056       -0.33690        0.95364
H         -2.48651       -1.81843       -2.18119
H         -1.95437       -0.18880       -1.73072
C         -4.10351       -0.45308       -1.64928
H         -3.33698       -2.96984        1.26261
H         -3.29598       -3.44135       -0.44335
C         -4.89677       -2.07098        0.06614
H         -2.00845        0.48323        0.80345
H         -2.57952       -0.71295        1.97936
C         -4.15381        0.19485        0.77007
H         -4.22831       -0.09120       -2.68222
C         -5.10011       -1.57738       -1.36626
C         -4.32886        0.69839       -0.66584
H         -5.58817       -2.90256        0.27425
C         -5.15316       -0.92818        1.04831
H         -4.31397        1.02405        1.47846
H         -4.95420       -2.40416       -2.08071
H         -6.13222       -1.21598       -1.50132
H         -3.61710        1.51575       -0.87081
H         -5.33974        1.11628       -0.79759
H         -6.18499       -0.55700        0.94052
H         -5.04757       -1.28337        2.08689
O          1.60328       -4.19435        0.61678
O         -1.35026       -4.28447        0.59898
C          1.61542       -5.23255       -0.35896
H          0.61222       -5.66866       -0.48084
H          1.97056       -4.85022       -1.32960
H          2.30942       -5.99772        0.00832
C         -1.31258       -4.81848        1.91902
H         -0.28726       -5.10607        2.19741
H         -1.69962       -4.08641        2.64621
H         -1.95742       -5.70517        1.91532
