73
5u_dinme2_tbu_au_hsiet3.log	Energy: -922361.9547912
N          1.63659       -1.10357       -0.10632
N          1.79379        1.07815        0.00126
C          0.92861        0.04977       -0.16374
Au        -1.07829        0.22829       -0.55141
H         -2.63375        0.47251       -1.11634
C          3.09003        0.56771        0.15016
C          2.99006       -0.80132        0.07780
Si        -3.74180        0.08472        0.05021
C         -3.91997       -1.78405        0.01717
H         -4.02193       -2.09598       -1.03642
H         -2.97509       -2.22844        0.37095
C         -5.09146       -2.30434        0.85273
H         -6.05933       -1.94297        0.47579
H         -5.12876       -3.40371        0.83693
H         -5.01384       -1.99749        1.90750
C         -5.06641        1.03980       -0.88493
H         -4.67338        2.05726       -1.05619
H         -5.16598        0.58650       -1.88632
C         -6.42675        1.11356       -0.19021
H         -7.13712        1.70447       -0.78730
H         -6.87462        0.11923       -0.04684
H         -6.35996        1.59260        0.79849
C         -3.47440        0.79957        1.76716
H         -3.21523        1.86745        1.66417
H         -4.48808        0.79611        2.21008
C         -2.50117        0.07835        2.69415
H         -1.46382        0.14866        2.33153
H         -2.52464        0.50828        3.70655
H         -2.74235       -0.99165        2.78885
C          0.99377       -2.46235       -0.18905
C          1.36333        2.52074       -0.01588
C          1.99130       -3.61059       -0.03497
H          2.72906       -3.64890       -0.84404
H          2.51528       -3.59329        0.92767
H          1.40405       -4.53942       -0.07861
C          0.32759       -2.60869       -1.55787
H         -0.47249       -1.86967       -1.71858
H          1.06731       -2.49227       -2.36338
H         -0.11904       -3.60914       -1.64371
C         -0.01259       -2.58277        0.95700
H         -0.79859       -1.81680        0.90487
H         -0.49558       -3.56938        0.91994
H          0.49403       -2.48395        1.92837
C          2.51426        3.48977        0.25419
H          2.97108        3.34148        1.23966
H          3.29475        3.45343       -0.51377
H          2.08101        4.50026        0.24033
C          0.80319        2.84244       -1.40243
H          1.56377        2.66766       -2.17750
H         -0.08224        2.23611       -1.64876
H          0.50679        3.89989       -1.44389
C          0.32450        2.73560        1.08696
H         -0.59058        2.14661        0.92576
H          0.73940        2.46440        2.06899
H          0.03764        3.79603        1.11563
N          4.01287       -1.72011        0.14328
N          4.23661        1.30904        0.31703
C          4.76754       -2.02649       -1.04701
H          5.70909       -1.44839       -1.11922
H          5.03372       -3.09804       -1.06948
H          4.16740       -1.81069       -1.94184
C          4.66827       -1.98597        1.39898
H          4.89820       -3.06249        1.49231
H          5.62062       -1.43330        1.51349
H          4.01044       -1.70938        2.23403
C          5.11855        1.54147       -0.79876
H          5.46787        2.59020       -0.80970
H          6.01683        0.89492       -0.77297
H          4.59040        1.35308       -1.74332
C          4.79446        1.51333        1.62983
H          5.67688        0.87355        1.82140
H          5.11384        2.56335        1.76037
H          4.04204        1.29237        2.39913
