65
5u_dime_ptolu_au_hsiet3.log	Energy: -945514.1175597
N          2.43654        1.22787        0.06879
N          0.54044        2.22952        0.06961
C          1.10988        1.00929        0.01593
Au         0.12637       -0.74651       -0.16098
H         -0.56826       -2.26261       -0.37564
C          3.41309        0.18538        0.04745
C          3.54628       -0.65514        1.15037
C          4.21276        0.00581       -1.07970
C          4.48557       -1.68189        1.11819
C          5.15182       -1.01964       -1.09394
C          5.30731       -1.88027        0.00173
H          4.58544       -2.34173        1.98347
H          5.77321       -1.16191       -1.98156
C         -0.87178        2.43926        0.04565
C         -1.62864        2.15919        1.18201
C         -1.48858        2.89534       -1.11747
C         -3.00879        2.33609        1.14727
C         -2.86883        3.07320       -1.13576
C         -3.65316        2.80066       -0.00686
H         -3.59887        2.11476        2.04039
H         -3.34917        3.42628       -2.05161
C          6.34271       -2.96393       -0.01444
H          6.09063       -3.77562        0.68164
H          6.46120       -3.39313       -1.01946
H          7.32500       -2.56423        0.28704
C         -5.13452        3.02742       -0.02515
H         -5.36985        4.06067        0.27888
H         -5.55431        2.88034       -1.03007
H         -5.65648        2.35603        0.67088
C          1.50471        3.22845        0.15662
C          2.71563        2.58881        0.15667
Si        -2.19789       -2.09274       -0.07497
C         -2.46315       -1.76444        1.75928
H         -1.58437       -2.14967        2.30389
H         -2.45560       -0.67098        1.90675
C         -3.74146       -2.38086        2.33209
H         -3.73440       -3.47817        2.25077
H         -3.85054       -2.13661        3.39943
H         -4.64572       -2.01798        1.82065
C         -2.48293       -3.88453       -0.57934
H         -1.87089       -4.08097       -1.47621
H         -2.06114       -4.52458        0.21535
C         -3.94096       -4.25342       -0.85755
H         -4.03136       -5.32008       -1.11175
H         -4.59338       -4.06969        0.00905
H         -4.34789       -3.68389       -1.70673
C         -3.02137       -0.84396       -1.21836
H         -2.47684        0.11318       -1.15773
H         -2.90027       -1.19976       -2.25611
C         -4.49715       -0.60633       -0.89068
H         -4.62276       -0.19980        0.12427
H         -4.93689        0.12390       -1.58665
H         -5.09863       -1.52486       -0.95874
C          4.09808        3.11555        0.26110
H          4.07879        4.19005        0.48147
H          4.65429        2.60851        1.06386
H          4.66392        2.97136       -0.67185
C          1.15528        4.66629        0.25451
H          0.68148        5.03490       -0.66819
H          0.45158        4.84863        1.08082
H          2.05686        5.26506        0.43314
H          4.08719        0.65770       -1.94691
H          2.91642       -0.50057        2.02904
H         -1.13162        1.80401        2.08732
H         -0.88907        3.09491       -2.00822
