95
5u_dicf3_dipp_au_hsiet3.log	Energy: -1564779.7391561
N         -0.83473        1.34468       -0.02334
N         -1.80591       -0.57769       -0.10875
C         -2.17765        1.59101       -0.23226
C         -2.29493       -2.55657        1.22312
C         -0.61152        0.01859        0.06080
C         -2.78963        0.36828       -0.31414
C          0.65299        2.70818        1.35269
C          0.22808        2.31258        0.07535
C         -1.95887       -2.00875       -0.02422
C         -2.39053       -3.94888        1.29370
H         -2.64821       -4.42179        2.24332
C          1.83702        3.71067       -0.99950
H          2.30761        4.10803       -1.90060
C          1.69905        3.63352        1.41071
H          2.05785        3.97570        2.38377
C          0.79486        2.78723       -1.11846
C         -1.71972       -2.77191       -1.17667
C          2.28026        4.13269        0.25023
H          3.09014        4.86238        0.31988
C         -2.15949       -4.73985        0.17310
H         -2.24194       -5.82618        0.25083
C         -1.82707       -4.15853       -1.04628
H         -1.65309       -4.79446       -1.91695
C         -2.49039       -1.70239        2.46082
H         -2.58087       -0.65170        2.14229
C          0.35330        2.28489       -2.47966
H         -0.63245        1.80769       -2.36573
C          0.18347        3.40956       -3.49694
H         -0.23075        3.01114       -4.43481
H          1.14262        3.88901       -3.74431
H         -0.50123        4.18484       -3.12489
C         -3.77467       -2.04837        3.21068
H         -3.92156       -1.35427        4.05147
H         -3.74167       -3.06519        3.63008
H         -4.65283       -1.97851        2.55338
C          1.32031        1.20949       -2.97900
H          0.99366        0.81136       -3.95168
H          2.33492        1.61975       -3.10365
H          1.38026        0.36815       -2.27100
C         -1.26241       -1.79734        3.36883
H         -1.12069       -2.82579        3.73530
H         -0.34313       -1.50494        2.83581
H         -1.37371       -1.13904        4.24396
C          0.02668        2.18151        2.62826
H         -0.77824        1.48188        2.35200
C          1.04470        1.39481        3.45407
H          1.47808        0.56549        2.87151
H          1.87305        2.03755        3.78950
H          0.56972        0.96810        4.34991
C         -0.61149        3.30657        3.44371
H         -1.35579        3.85756        2.85200
H         -1.11283        2.89690        4.33343
H          0.14272        4.02856        3.79240
C         -1.35342       -2.15049       -2.50971
H         -1.38473       -1.05477       -2.39683
C         -2.35743       -2.52036       -3.60126
H         -2.10525       -2.00881       -4.54234
H         -2.35318       -3.60229       -3.80320
H         -3.37993       -2.23456       -3.31746
C          0.07495       -2.52312       -2.90775
H          0.79560       -2.22814       -2.12834
H          0.17674       -3.60839       -3.06211
H          0.36093       -2.02283       -3.84532
Au         1.15589       -0.89557        0.41648
H          2.52256       -1.76741        0.84917
Si         3.84471       -1.04915        0.12851
C          5.00605       -1.96830        1.28800
H          4.58577       -1.89930        2.30604
H          4.97613       -3.03930        1.02264
C          6.44374       -1.44518        1.28351
H          6.49539       -0.39584        1.61170
H          7.07325       -2.02981        1.97077
H          6.90818       -1.50493        0.28797
C          3.92533        0.82107        0.33515
H          2.94536        1.26917        0.10438
H          4.10349        1.03117        1.40391
C          4.99579        1.47922       -0.53744
H          5.02048        2.56504       -0.36088
H          6.00537        1.09111       -0.33536
H          4.79078        1.33028       -1.60878
C          3.87176       -1.67205       -1.64433
H          3.34230       -2.63983       -1.66380
H          3.26876       -0.98661       -2.26287
C          5.27571       -1.83557       -2.23138
H          5.86796       -2.57241       -1.66835
H          5.22471       -2.18858       -3.27215
H          5.83929       -0.89068       -2.23579
C         -2.75051        2.98123       -0.37745
C         -4.24289        0.01492       -0.52698
F         -4.00553        3.01185        0.04004
F         -2.71343        3.37933       -1.64666
F         -2.05495        3.85444        0.34497
F         -4.83769        0.93015       -1.27569
F         -4.88429       -0.06787        0.63528
F         -4.35602       -1.15742       -1.14267
