79
5u_diome_mes_au_hsiet3.log	Energy: -1138230.9619463
N          2.26353        0.69585       -0.03765
N          0.44814        1.85539       -0.03402
C          0.92171        0.59303       -0.01517
Au        -0.21535       -1.07398       -0.07796
H         -1.05189       -2.52880       -0.18380
C          3.16213       -0.41802       -0.04936
C          3.37782       -1.12475        1.14162
C          3.78946       -0.75603       -1.25719
C          4.25520       -2.21039        1.09524
C          4.65652       -1.84816       -1.24643
C          4.90447       -2.58661       -0.08391
H          4.43989       -2.77669        2.01201
H          5.15320       -2.13277       -2.17796
C         -0.94341        2.18464       -0.03974
C         -1.66482        2.08655        1.15875
C         -1.53530        2.57083       -1.25057
C         -3.03077        2.37565        1.11397
C         -2.90235        2.85314       -1.23794
C         -3.66684        2.76208       -0.07007
H         -3.61331        2.30788        2.03700
H         -3.38480        3.15221       -2.17239
C          3.53578        0.03297       -2.50623
H          2.45721        0.15016       -2.69647
H          3.96577        1.04369       -2.42449
H          3.98447       -0.45805       -3.37903
C          2.68939       -0.74235        2.41925
H          2.67702        0.34776        2.57096
H          1.63841       -1.07590        2.42133
H          3.18551       -1.20292        3.28330
C          5.86679       -3.73629       -0.10249
H          5.72812       -4.39630        0.76453
H          5.75579       -4.33752       -1.01646
H          6.90674       -3.37145       -0.07936
C         -0.72316        2.67076       -2.50579
H          0.00574        3.49321       -2.43328
H         -0.15395        1.74600       -2.69090
H         -1.36404        2.85881       -3.37645
C         -1.00037        1.67855        2.44078
H         -0.75972        0.60278        2.44436
H         -0.05125        2.21344        2.59724
H         -1.65194        1.87940        3.30097
C         -5.12674        3.10343       -0.08263
H         -5.27054        4.18930        0.04193
H         -5.59926        2.82103       -1.03406
H         -5.66760        2.60625        0.73465
C          1.49632        2.77140       -0.08227
C          2.65087        2.03407       -0.08296
Si        -2.67323       -2.15572       -0.05900
C         -3.04701       -1.60666        1.70173
H         -2.25973       -2.00899        2.36164
H         -2.94238       -0.50868        1.73162
C         -4.42431       -2.03140        2.21591
H         -4.52637       -3.12652        2.24827
H         -4.59274       -1.66050        3.23816
H         -5.24092       -1.64178        1.58961
C         -3.11423       -3.95081       -0.41694
H         -2.46051       -4.29833       -1.23517
H         -2.82642       -4.54590        0.46748
C         -4.57825       -4.19778       -0.78457
H         -4.76342       -5.27028       -0.94589
H         -5.27124       -3.86342        0.00179
H         -4.85555       -3.67910       -1.71466
C         -3.25209       -0.94728       -1.38059
H         -2.61677       -0.04632       -1.34350
H         -3.07918       -1.40751       -2.36866
C         -4.71604       -0.53199       -1.21697
H         -4.88322       -0.02206       -0.25638
H         -5.00927        0.17250       -2.01000
H         -5.40664       -1.38669       -1.26754
C          4.73819        2.36601        0.94096
H          4.29955        2.96243        1.75691
H          4.88893        1.32689        1.27246
H          5.70324        2.79718        0.65132
C          0.95240        4.81186        0.94479
H         -0.04599        4.52043        1.30728
H          1.69983        4.66382        1.74051
H          0.93576        5.86782        0.65164
O          3.91025        2.41864       -0.21721
O          1.30871        4.07515       -0.22044
