71
5u_dicl_mes_au_hsiet3.log	Energy: -1571198.9118463
N          2.26705        0.68800        0.01778
N          0.44915        1.85108        0.01698
C          0.92460        0.58890       -0.00624
Au        -0.20757       -1.07904       -0.06714
H         -1.04928       -2.53375       -0.13395
C          3.15886       -0.43472        0.00423
C          3.55799       -0.98335        1.22921
C          3.58187       -0.93485       -1.23353
C          4.40778       -2.08896        1.18678
C          4.43110       -2.04154       -1.21816
C          4.85569       -2.63102       -0.02258
H          4.73215       -2.53909        2.12870
H          4.77400       -2.45421       -2.17062
C         -0.94620        2.17729       -0.00065
C         -1.62706        2.26639        1.22003
C         -1.57158        2.36787       -1.23948
C         -2.99481        2.54167        1.17174
C         -2.94041        2.64060       -1.23071
C         -3.66851        2.73119       -0.03970
H         -3.54977        2.61461        2.11098
H         -3.45300        2.78898       -2.18486
C          3.13945       -0.29840       -2.51717
H          2.04205       -0.30889       -2.61687
H          3.46308        0.75325       -2.57472
H          3.56111       -0.82562       -3.38212
C          3.09172       -0.39663        2.52797
H          3.43467        0.64434        2.64181
H          1.99207       -0.38793        2.59710
H          3.47889       -0.97054        3.37924
C          5.79839       -3.79654       -0.03667
H          5.66209       -4.43809        0.84497
H          5.66799       -4.41160       -0.93792
H          6.84353       -3.44547       -0.02819
C         -0.79463        2.27726       -2.51824
H         -0.00907        3.04847       -2.56166
H         -0.29589        1.29995       -2.62095
H         -1.44929        2.41766       -3.38755
C         -0.91040        2.06366        2.52085
H         -0.46617        1.05684        2.58317
H         -0.09047        2.78892        2.64303
H         -1.59461        2.18498        3.37007
C         -5.13166        3.05732       -0.05895
H         -5.28363        4.14731        0.00642
H         -5.61078        2.71652       -0.98735
H         -5.65923        2.60466        0.79254
C          1.49573        2.75571        0.05608
C          2.64747        2.01875        0.05645
Si        -2.67172       -2.14500       -0.01451
C         -3.03670       -1.33217        1.64256
H         -2.27200       -1.66708        2.36402
H         -2.88870       -0.24552        1.51920
C         -4.43447       -1.62697        2.19226
H         -4.57899       -2.70071        2.38431
H         -4.59697       -1.10317        3.14627
H         -5.22963       -1.30369        1.50389
C         -3.12766       -3.96888       -0.09647
H         -2.47554       -4.44701       -0.84714
H         -2.85569       -4.42585        0.87101
C         -4.59411       -4.24300       -0.43545
H         -4.79682       -5.32434       -0.44032
H         -5.28500       -3.78641        0.28881
H         -4.85785       -3.86056       -1.43312
C         -3.23030       -1.15231       -1.51248
H         -2.56149       -0.28322       -1.62945
H         -3.08634       -1.77719       -2.41075
C         -4.67615       -0.66175       -1.40926
H         -4.80927        0.01323       -0.55064
H         -4.96142       -0.09842       -2.31067
H         -5.39488       -1.48760       -1.30117
Cl         4.25844        2.50949        0.09408
Cl         1.26289        4.42427        0.09437
