77
5u_dime_mes_au_hsiet3.log	Energy: -1044026.6586099
N          2.29829        1.11546        0.02890
N          0.38077        2.07419        0.02643
C          0.97824        0.86838        0.00081
Au         0.02443       -0.90641       -0.06925
H         -0.66463       -2.44269       -0.14305
C          3.30174        0.09474        0.01621
C          3.74805       -0.42266        1.23934
C          3.78922       -0.35248       -1.21871
C          4.72631       -1.41713        1.19963
C          4.76672       -1.34849       -1.20292
C          5.25182       -1.88914       -0.00765
H          5.08861       -1.83681        2.14195
H          5.16089       -1.71400       -2.15495
C         -1.03919        2.24703        0.01088
C         -1.72652        2.27639        1.23160
C         -1.69104        2.34961       -1.22557
C         -3.11525        2.41728        1.18815
C         -3.08028        2.48767       -1.21419
C         -3.80952        2.52684       -0.02124
H         -3.67138        2.44132        2.12936
H         -3.60924        2.56533       -2.16795
C          3.25604        0.20256       -2.50631
H          2.19376       -0.06012       -2.64036
H          3.31854        1.30146       -2.53898
H          3.81148       -0.19400       -3.36560
C          3.17175        0.05916        2.53781
H          3.23984        1.15365        2.63820
H          2.10366       -0.20197        2.61760
H          3.69340       -0.39212        3.39127
C          6.33063       -2.93044       -0.01913
H          6.25781       -3.59796        0.85080
H          6.29199       -3.54300       -0.93067
H          7.32533       -2.45597        0.01468
C         -0.92129        2.27675       -2.51061
H         -0.11397        3.02439       -2.54833
H         -0.44319        1.29049       -2.63153
H         -1.57804        2.44321       -3.37387
C         -0.99552        2.12072        2.53153
H         -0.54531        1.11741        2.61279
H         -0.17257        2.84517        2.63007
H         -1.67282        2.25789        3.38402
C         -5.29790        2.70830       -0.03749
H         -5.55717        3.77890        0.00787
H         -5.74524        2.30360       -0.95618
H         -5.77483        2.22217        0.82538
C          1.32246        3.09614        0.07114
C          2.54781        2.48318        0.07256
Si        -2.31331       -2.22088       -0.02554
C         -2.77151       -1.42698        1.61817
H         -1.98157       -1.67307        2.34818
H         -2.73265       -0.33280        1.48011
C         -4.13597       -1.85211        2.16588
H         -4.17408       -2.93207        2.37313
H         -4.35586       -1.33348        3.11127
H         -4.95527       -1.61963        1.46919
C         -2.58541       -4.08279       -0.08061
H         -1.88794       -4.50322       -0.82509
H         -2.26776       -4.49554        0.89289
C         -4.01580       -4.51168       -0.41255
H         -4.10641       -5.60814       -0.40113
H         -4.75004       -4.11788        0.30597
H         -4.31818       -4.17353       -1.41528
C         -2.96912       -1.31393       -1.53875
H         -2.38986       -0.38480       -1.66943
H         -2.76180       -1.93579       -2.42670
C         -4.45673       -0.96860       -1.44387
H         -4.65683       -0.29335       -0.59848
H         -4.79674       -0.45454       -2.35575
H         -5.08953       -1.85984       -1.31836
C          3.92492        3.03096        0.10983
H          3.90091        4.12716        0.14284
H          4.47569        2.67204        0.99275
H          4.50199        2.72603       -0.77661
C          0.93325        4.52633        0.10742
H          0.34545        4.80609       -0.78040
H          0.31485        4.75265        0.98965
H          1.82438        5.16507        0.14203
