79
5u_diph_ptolu_au_hsiet3.log	Energy: -1185714.3263699
N          1.74061       -0.72956       -0.03018
N          0.64173        1.11896       -0.07474
C          0.49376       -0.22206       -0.07411
Au        -1.27357       -1.20727       -0.05402
H         -2.67882       -2.13019       -0.00003
C          2.01896       -2.13042       -0.05548
C          1.54249       -2.94578        0.96739
C          2.76312       -2.66898       -1.10382
C          1.80549       -4.31340        0.93043
C          3.02470       -4.03301       -1.12088
C          2.55141       -4.88080       -0.10830
H          1.43024       -4.95125        1.73430
H          3.60810       -4.45262       -1.94427
C         -0.46686        2.01899       -0.08124
C         -0.72752        2.81227        1.03368
C         -1.28895        2.08391       -1.20379
C         -1.83004        3.65990        1.02364
C         -2.39062        2.93526       -1.19820
C         -2.68671        3.73054       -0.08430
H         -2.03306        4.27977        1.90043
H         -3.02936        2.98860       -2.08314
C          2.85361       -6.34871       -0.14076
H          2.33004       -6.88891        0.65924
H          2.55955       -6.79332       -1.10367
H          3.93347       -6.52915       -0.01889
C         -3.89866        4.61247       -0.06240
H         -3.68882        5.57408        0.42750
H         -4.27092        4.81569       -1.07575
H         -4.71593        4.13338        0.50226
C          1.98727        1.47149       -0.02302
C          2.69028        0.28928       -0.00162
Si        -3.95536       -1.05923        0.07237
C         -3.76181        0.27562        1.38712
H         -3.16883       -0.14691        2.21623
H         -3.14926        1.08822        0.96245
C         -5.08400        0.82692        1.92663
H         -5.67401        0.05062        2.43635
H         -4.89876        1.62642        2.66006
H         -5.71480        1.25280        1.13207
C         -5.12876       -2.44457        0.57204
H         -4.83271       -3.35470        0.02311
H         -4.94888       -2.66652        1.63852
C         -6.60824       -2.14830        0.31965
H         -7.23705       -2.98606        0.65629
H         -6.95371       -1.24921        0.85140
H         -6.81507       -2.00026       -0.75120
C         -4.24589       -0.42131       -1.67329
H         -3.29116       -0.03252       -2.06355
H         -4.50109       -1.28727       -2.30839
C         -5.32313        0.66056       -1.76801
H         -5.04911        1.55330       -1.18540
H         -5.46708        0.98188       -2.81075
H         -6.29960        0.31268       -1.39921
H          3.13595       -2.01932       -1.89773
H          0.98057       -2.50849        1.79574
H         -0.06804        2.76309        1.90209
H         -1.05501        1.47644       -2.08080
C          4.13942        0.06265        0.02639
C          4.96694        0.77588       -0.85248
C          4.71393       -0.84423        0.92852
C          6.34485        0.58508       -0.82713
H          4.52300        1.48070       -1.55877
C          6.09240       -1.03319        0.94675
H          4.08081       -1.39943        1.62338
C          6.90990       -0.32024        0.07052
H          6.98139        1.14371       -1.51664
H          6.53192       -1.73928        1.65450
H          7.99163       -0.47053        0.08758
C          2.47106        2.85497        0.03689
C          3.44763        3.20307        0.98135
C          1.98343        3.83499       -0.83953
C          3.92734        4.50730        1.04504
H          3.82819        2.44412        1.66816
C          2.46441        5.13896       -0.76831
H          1.23203        3.57516       -1.58749
C          3.43607        5.47786        0.17239
H          4.68701        4.76877        1.78477
H          2.08171        5.89469       -1.45758
H          3.81262        6.50179        0.22499
