101
5u_diph_ad_au_hsiet3.log	Energy: -1335004.5404981
N          1.47243       -0.93099        0.01822
N          0.92402        1.18698       -0.00725
C          0.42432       -0.07186       -0.02898
Au        -1.53642       -0.64241       -0.23845
H         -2.99273       -1.40064       -0.57042
C          2.31296        1.12417        0.03402
C          2.65574       -0.20173        0.04901
Si        -4.31882       -0.58205       -0.07132
C         -4.18395        0.16458        1.65279
H         -3.49635       -0.46412        2.24416
H         -3.69822        1.15052        1.57527
C         -5.52822        0.28676        2.37515
H         -5.99528       -0.69630        2.53597
H         -5.39711        0.74896        3.36497
H         -6.24544        0.90829        1.81832
C         -5.36571       -2.14802       -0.11064
H         -5.00847       -2.77125       -0.94816
H         -5.14369       -2.72283        0.80559
C         -6.86977       -1.90793       -0.25309
H         -7.41911       -2.86127       -0.25244
H         -7.27753       -1.29767        0.56632
H         -7.11085       -1.39765       -1.19802
C         -4.71799        0.61685       -1.46265
H         -3.80581        1.18202       -1.71544
H         -4.94747        0.01025       -2.35610
C         -5.86442        1.58092       -1.15320
H         -5.62759        2.23389       -0.29914
H         -6.07098        2.23525       -2.01328
H         -6.79985        1.05311       -0.91492
C          1.29935       -2.42286        0.04299
C          0.66292       -2.88223       -1.27804
C          2.62981       -3.17159        0.20070
C          0.41794       -2.81141        1.24245
H          1.33427       -2.61470       -2.11097
H         -0.28743       -2.34845       -1.45198
C          0.40561       -4.38977       -1.24547
H          3.13219       -2.86401        1.12838
H          3.30733       -2.93163       -0.62823
C          2.38998       -4.68696        0.22453
H         -0.54583       -2.27668        1.20483
H          0.91981       -2.49409        2.17170
C          0.15823       -4.31856        1.24762
H         -0.07620       -4.68573       -2.19099
C          1.73628       -5.12606       -1.08539
C         -0.51561       -4.72176       -0.06759
H          3.36899       -5.17879        0.33553
C          1.48692       -5.05802        1.39935
H         -0.50438       -4.55801        2.09475
H          2.39860       -4.90360       -1.93828
H          1.57256       -6.21577       -1.08287
H         -1.47905       -4.19333       -0.17844
H         -0.74394       -5.79954       -0.05931
H          1.32008       -6.14702        1.42332
H          1.96656       -4.78587        2.35406
C          0.04784        2.40384        0.02698
C         -0.86337        2.32450        1.26212
C          0.85143        3.70655        0.13018
C         -0.79085        2.47306       -1.25786
H         -0.23646        2.29358        2.16867
H         -1.44085        1.38629        1.24363
C         -1.81624        3.52072        1.29908
H          1.52532        3.81135       -0.72962
H          1.47835        3.69686        1.03214
C         -0.09265        4.91396        0.17821
H         -1.36794        1.54098       -1.38346
H         -0.11576        2.54868       -2.12626
C         -1.74380        3.66963       -1.20226
H         -2.47455        3.42069        2.17774
C         -1.00593        4.81263        1.39917
C         -2.65694        3.53927        0.01986
H          0.52655        5.82166        0.25018
C         -0.93292        4.96141       -1.09786
H         -2.35127        3.68017       -2.12184
H         -0.40888        4.81720        2.32594
H         -1.67875        5.68403        1.44662
H         -3.25419        2.61637       -0.05287
H         -3.37142        4.37765        0.04831
H         -1.60544        5.83414       -1.08017
H         -0.28252        5.07556       -1.98064
C          4.06143       -0.66276        0.04053
C          4.72305       -0.86064       -1.17658
C          4.77342       -0.79526        1.23679
C          6.06752       -1.22201       -1.19497
H          4.17573       -0.73143       -2.11361
C          6.11818       -1.15643        1.21771
H          4.26564       -0.61726        2.18780
C          6.76516       -1.37571        0.00247
H          6.57544       -1.37823       -2.14915
H          6.66576       -1.26222        2.15674
H          7.82026       -1.65777       -0.01200
C          3.31974        2.20787        0.00703
C          3.89575        2.67083        1.19435
C          3.78722        2.69741       -1.21771
C          4.89901        3.63593        1.15921
H          3.55011        2.27194        2.15108
C          4.78986        3.66284       -1.25222
H          3.35854        2.31703       -2.14825
C          5.34307        4.13723       -0.06346
H          5.34063        3.99482        2.09141
H          5.14662        4.04196       -2.21235
H          6.13100        4.89316       -0.09068
