89
5u_dif_dipp_au_hsiet3.log	Energy: -1266821.9426309
N          0.59408        1.85773        0.43286
N          2.22447        0.44919        0.36077
C          1.72371        2.53396        0.83864
C          3.56480       -0.99438       -1.06947
C          0.90168        0.57632        0.13561
C          2.75156        1.64454        0.79598
C         -1.13099        2.83268       -0.98213
C         -0.71432        2.43207        0.29655
C          2.96231       -0.76821        0.17784
C          4.24020       -2.20608       -1.23323
H          4.72249       -2.42853       -2.18726
C         -2.79648        3.06756        1.27899
H         -3.45375        3.17142        2.14368
C         -2.42516        3.35194       -1.09214
H         -2.79061        3.67896       -2.06795
C         -1.51443        2.54025        1.44720
C          3.00828       -1.67766        1.24514
C         -3.24639        3.46778        0.02310
H         -4.25129        3.88239       -0.08447
C          4.30662       -3.13311       -0.19740
H          4.84263       -4.07309       -0.34639
C          3.69894       -2.87258        1.02652
H          3.76323       -3.61099        1.82874
C          3.45849       -0.00068       -2.20890
H          3.04812        0.93822       -1.80330
C         -1.03179        2.05262        2.79961
H          0.06966        2.09133        2.79669
C         -1.50198        2.93000        3.95530
H         -1.02381        2.60785        4.89189
H         -2.58953        2.85979        4.10925
H         -1.24809        3.98701        3.78890
C          4.82102        0.33298       -2.81242
H          4.71749        1.11407       -3.58032
H          5.27835       -0.54272       -3.29732
H          5.51970        0.69737       -2.04504
C         -1.43551        0.59096        3.00822
H         -1.05936        0.21482        3.97179
H         -2.53221        0.48781        3.00810
H         -1.03492       -0.05531        2.21198
C          2.47423       -0.50246       -3.26717
H          2.82530       -1.44159       -3.72207
H          1.48018       -0.69453       -2.83136
H          2.35679        0.23904       -4.07219
C         -0.23668        2.73826       -2.20161
H          0.70487        2.25418       -1.89869
C         -0.85897        1.86110       -3.28674
H         -1.08473        0.85318       -2.90254
H         -1.79575        2.29231       -3.67156
H         -0.16963        1.75332       -4.13740
C          0.11842        4.13102       -2.72374
H          0.59429        4.74124       -1.94160
H          0.81405        4.05856       -3.57334
H         -0.77633        4.67062       -3.07039
C          2.34043       -1.40271        2.57729
H          1.87203       -0.40693        2.52551
C          3.36242       -1.36089        3.71300
H          2.87210       -1.10421        4.66418
H          3.85712       -2.33498        3.84721
H          4.14441       -0.61233        3.51692
C          1.22114       -2.40785        2.84776
H          0.47768       -2.40204        2.03505
H          1.61243       -3.43297        2.93634
H          0.70254       -2.16655        3.78807
Au        -0.36631       -0.83477       -0.55487
H         -1.30263       -2.03359       -1.26464
Si        -2.80250       -1.96634       -0.52865
C         -3.52540       -3.07581       -1.86538
H         -3.14813       -2.71710       -2.83840
H         -3.10278       -4.08703       -1.73402
C         -5.05436       -3.12233       -1.88725
H         -5.48807       -2.13016       -2.08468
H         -5.41268       -3.79505       -2.68067
H         -5.47615       -3.48609       -0.93848
C         -3.57199       -0.24600       -0.50781
H         -2.83262        0.49426       -0.16110
H         -3.80001        0.02908       -1.55214
C         -4.82361       -0.15321        0.36701
H         -5.24647        0.86189        0.32662
H         -5.61402       -0.85068        0.05156
H         -4.59514       -0.36683        1.42258
C         -2.62774       -2.79952        1.14796
H         -1.77655       -3.49859        1.08207
H         -2.33269       -2.03569        1.88658
C         -3.87916       -3.54693        1.61439
H         -4.14468       -4.36326        0.92609
H         -3.71787       -3.99824        2.60474
H         -4.75425       -2.88517        1.69712
F          1.68124        3.78883        1.17650
F          4.01292        1.76908        1.08368
