81
5u_dicl_ad_au_hsiet3.log	Energy: -1621977.8210928
N          2.21611        0.85475        0.01897
N          0.43241        2.14666       -0.00686
C          0.85844        0.85847       -0.04023
Au        -0.29325       -0.83621       -0.23351
H         -0.92921       -2.34973       -0.54793
C          1.54293        2.96986        0.06693
C          2.65072        2.16678        0.08277
Si        -2.46437       -2.59601       -0.02790
C         -2.84034       -1.89615        1.67944
H         -1.90760       -1.90990        2.26900
H         -3.11647       -0.83461        1.57583
C         -3.93710       -2.66249        2.42412
H         -3.64947       -3.70802        2.60963
H         -4.13550       -2.20236        3.40355
H         -4.88791       -2.67211        1.87043
C         -2.22387       -4.46341       -0.02170
H         -1.54890       -4.72053       -0.85582
H         -1.67712       -4.73008        0.89969
C         -3.51955       -5.26850       -0.14081
H         -3.31077       -6.34844       -0.11687
H         -4.22339       -5.05559        0.67733
H         -4.03982       -5.06162       -1.08838
C         -3.55220       -1.98613       -1.43325
H         -3.22601       -0.97363       -1.72297
H         -3.34037       -2.62648       -2.30726
C         -5.04777       -1.98497       -1.11200
H         -5.28452       -1.30632       -0.27816
H         -5.63558       -1.64982       -1.97948
H         -5.41544       -2.98506       -0.83794
C          3.02388       -0.42371        0.01911
C          2.77740       -1.17093       -1.30071
C          4.53584       -0.18231        0.13243
C          2.60466       -1.27308        1.22976
H          3.12205       -0.54328       -2.13907
H          1.69826       -1.34158       -1.45545
C          3.50669       -2.51606       -1.28800
H          4.76842        0.36246        1.05843
H          4.89039        0.42356       -0.71264
C          5.28648       -1.52191        0.13276
H          1.51609       -1.45035        1.22155
H          2.82878       -0.71501        2.15393
C          3.33561       -2.61673        1.21070
H          3.28399       -3.04357       -2.22902
C          5.01094       -2.27162       -1.16982
C          3.01953       -3.34795       -0.09769
H          6.36181       -1.30000        0.21528
C          4.84016       -2.37222        1.32071
H          2.98821       -3.21615        2.06723
H          5.37052       -1.68842       -2.03342
H          5.55664       -3.22863       -1.18041
H          1.93301       -3.52888       -0.17935
H          3.50643       -4.33603       -0.10436
H          5.38505       -3.32971        1.32900
H          5.07426       -1.86214        2.26955
C         -1.03240        2.51191       -0.00735
C         -1.69261        1.87959        1.22679
C         -1.27246        4.02637        0.06114
C         -1.68214        1.99661       -1.29994
H         -1.21795        2.28316        2.13637
H         -1.51853        0.79134        1.23253
C         -3.19602        2.16481        1.22449
H         -0.81220        4.52562       -0.80283
H         -0.81983        4.44377        0.97130
C         -2.77766        4.32366        0.06960
H         -1.51072        0.91207       -1.40809
H         -1.20254        2.48235       -2.16552
C         -3.18669        2.27905       -1.27995
H         -3.64743        1.67639        2.10355
C         -3.42691        3.67414        1.29095
C         -3.81746        1.60588       -0.05795
H         -2.90139        5.41658        0.11918
C         -3.41886        3.78802       -1.20975
H         -3.63195        1.87201       -2.20213
H         -2.99712        4.08565        2.21888
H         -4.50594        3.89542        1.31191
H         -3.66561        0.51585       -0.10742
H         -4.90631        1.77386       -0.05513
H         -4.49797        4.00979       -1.21716
H         -2.98396        4.28262       -2.09366
Cl         4.22799        2.78641        0.15686
Cl         1.64122        4.66293        0.11281
