65
5u_dicf3_ptolu_au_hsiet3.log	Energy: -1318525.2069848
N          2.15237       -0.18273       -0.01985
N          0.78796        1.48468        0.01468
C          0.84399        0.13802       -0.02331
Au        -0.74210       -1.11491       -0.11803
H         -1.95611       -2.26182       -0.26084
C          2.61237       -1.54302       -0.01364
C          3.24324       -2.04918        1.11906
C          2.38888       -2.34280       -1.13076
C          3.65618       -3.37677        1.12359
C          2.80266       -3.67063       -1.10519
C          3.44605       -4.21021        0.01631
H          4.14974       -3.77690        2.01245
H          2.62994       -4.29984       -1.98154
C         -0.45376        2.20483       -0.00686
C         -1.26763        2.19575        1.12271
C         -0.83971        2.87464       -1.16388
C         -2.48392        2.86942        1.08654
C         -2.05835        3.54622       -1.18120
C         -2.89880        3.56076       -0.06005
H         -3.12094        2.86938        1.97463
H         -2.36271        4.07213       -2.08924
C          3.92690       -5.62920        0.02193
H          3.87117       -6.07035        1.02697
H          3.34551       -6.25726       -0.66685
H          4.98090       -5.67794       -0.29794
C         -4.18799        4.32381       -0.07582
H         -4.01684        5.36951        0.22849
H         -4.63326        4.34639       -1.08025
H         -4.92200        3.89697        0.62155
C          2.06220        2.02000        0.05517
C          2.92913        0.96183        0.00301
Si        -3.41581       -1.48824       -0.00139
C         -3.54371       -1.05107        1.82311
H         -2.87952       -1.73105        2.38326
H         -3.12496       -0.03914        1.95630
C         -4.96410       -1.12914        2.38856
H         -5.37183       -2.14886        2.32133
H         -4.97806       -0.84495        3.45134
H         -5.66080       -0.45914        1.86260
C         -4.32892       -3.06080       -0.48498
H         -3.82469       -3.48233       -1.37132
H         -4.17493       -3.79597        0.32422
C         -5.81954       -2.87734       -0.77621
H         -6.28966       -3.84271       -1.01572
H         -6.36607       -2.45372        0.07945
H         -5.98579       -2.21481       -1.63892
C         -3.69565       -0.04696       -1.17909
H         -2.83987        0.64587       -1.11461
H         -3.69468       -0.44130       -2.20989
C         -4.98781        0.72031       -0.88867
H         -4.97449        1.16351        0.11852
H         -5.11673        1.54701       -1.60326
H         -5.88231        0.08430       -0.96094
C          4.43994        0.91311       -0.05127
C          2.29866        3.51036        0.14423
H          1.90782       -1.92420       -2.01736
H          3.40901       -1.41165        1.98964
H         -0.94119        1.67485        2.02522
H         -0.19273        2.87098       -2.04320
F          4.92651        2.03487       -0.55271
F          4.83555       -0.09075       -0.82644
F          4.95268        0.72807        1.16176
F          3.48743        3.77156        0.65618
F          2.21358        4.07423       -1.05751
F          1.37976        4.06882        0.92721
