105
5u_dinme2_dipp_au_hsiet3.log	Energy: -1310334.3755847
N          0.81517        1.43821        0.08659
N          1.95306       -0.38648        0.14646
C          2.13248        1.81424        0.38306
C          2.78582       -2.23771       -1.18411
C          0.71475        0.10197       -0.03952
C          2.87095        0.64813        0.36994
C         -0.72774        2.73241       -1.30246
C         -0.28897        2.34063       -0.02482
C          2.28626       -1.77454        0.04365
C          3.08593       -3.59833       -1.28318
H          3.47179       -3.99784       -2.22338
C         -1.97207        3.66790        1.04498
H         -2.46600        4.03778        1.94566
C         -1.81780        3.60705       -1.36290
H         -2.19095        3.93192       -2.33659
C         -0.88936        2.79308        1.16255
C          2.08922       -2.60913        1.15777
C         -2.43055        4.07285       -0.20518
H         -3.27643        4.76039       -0.27722
C          2.89482       -4.45228       -0.20167
H          3.13421       -5.51359       -0.29891
C          2.40188       -3.96291        1.00325
H          2.25827       -4.64692        1.84239
C          2.94199       -1.31827       -2.37811
H          2.85388       -0.28274       -2.01595
C         -0.42918        2.30080        2.51940
H          0.57279        1.86495        2.39189
C         -0.30207        3.42474        3.54266
H          0.13217        3.04156        4.47831
H         -1.27798        3.86592        3.79674
H          0.34650        4.23028        3.16804
C          4.31370       -1.44688       -3.03456
H          4.42645       -0.70138       -3.83626
H          4.46064       -2.43793       -3.49031
H          5.11915       -1.28934       -2.30223
C         -1.35068        1.18257        3.01029
H         -1.00373        0.78289        3.97567
H         -2.38084        1.54882        3.14550
H         -1.37843        0.35180        2.28823
C          1.80668       -1.54783       -3.37766
H          1.83702       -2.57019       -3.78558
H          0.82325       -1.40731       -2.90171
H          1.88183       -0.84527       -4.22220
C         -0.08896        2.22827       -2.58366
H          0.81207        1.65614       -2.30986
C         -1.03030        1.27670       -3.32417
H         -1.31745        0.42263       -2.68967
H         -1.95372        1.79151       -3.63204
H         -0.54761        0.87810       -4.22906
C          0.34870        3.36906       -3.50277
H          1.02900        4.07052       -2.99862
H          0.87104        2.96787       -4.38422
H         -0.51260        3.94800       -3.86911
C          1.53184       -2.09768        2.47365
H          1.52695       -0.99599        2.43098
C          2.38591       -2.51023        3.67227
H          1.99845       -2.04870        4.59299
H          2.37227       -3.60000        3.82423
H          3.43650       -2.20582        3.55771
C          0.08507       -2.55618        2.66314
H         -0.54816       -2.23206        1.82214
H          0.02364       -3.65402        2.72288
H         -0.33928       -2.14111        3.59016
Au        -0.96934       -0.93758       -0.44799
H         -2.27061       -1.89077       -0.92306
Si        -3.62637       -1.25230       -0.19551
C         -4.73554       -2.19653       -1.38894
H         -4.31005       -2.07884       -2.40043
H         -4.65280       -3.27174       -1.15299
C         -6.19811       -1.74935       -1.38708
H         -6.30046       -0.69491       -1.68593
H         -6.79055       -2.34532       -2.09740
H         -6.66861       -1.86050       -0.39879
C         -3.82519        0.61625       -0.34891
H         -2.87693        1.11945       -0.10052
H         -4.01269        0.84505       -1.41217
C         -4.93825        1.18019        0.53588
H         -5.03068        2.26700        0.39007
H         -5.92061        0.73451        0.31862
H         -4.72696        1.01427        1.60353
C         -3.65211       -1.92228        1.56179
H         -3.06549       -2.85658        1.56826
H         -3.10126       -1.21877        2.20825
C         -5.05303       -2.18369        2.11868
H         -5.59063       -2.93964        1.52673
H         -4.99994       -2.55929        3.15156
H         -5.67212       -1.27434        2.13477
N          2.45724        3.10049        0.74093
N          4.22519        0.42312        0.40597
C          3.30297        3.29602        1.89667
H          4.38432        3.29295        1.66243
H          3.06751        4.26720        2.36050
H          3.10670        2.50994        2.63896
C          2.50316        4.14086       -0.26276
H          2.32830        5.11839        0.21099
H          3.47446        4.18284       -0.79346
H          1.70736        3.98782       -1.00145
C          4.82348       -0.21795        1.55601
H          5.74936       -0.72997        1.25384
H          5.07202        0.49767        2.36414
H          4.14511       -0.97879        1.95953
C          5.08685        1.30085       -0.35257
H          5.41817        2.19438        0.20981
H          5.99000        0.74925       -0.65880
H          4.56997        1.63460       -1.26292
