57
5u_dicl_tbu_au_hsiet3.log	Energy: -1330965.2179260
N          2.26153       -0.97601        0.04383
N          1.87901        1.18974       -0.03746
C          1.29812       -0.03444       -0.12593
Au        -0.68740       -0.41925       -0.48622
H         -2.22592       -0.87938       -0.96035
C          3.23194        1.01469        0.19158
C          3.47002       -0.33253        0.24104
Si        -3.35674       -0.14708        0.01549
C         -3.01834       -0.39104        1.85256
H         -2.46689       -1.33891        1.97611
H         -2.33306        0.40249        2.19583
C         -4.28489       -0.41534        2.71338
H         -4.94510       -1.25175        2.43998
H         -4.02953       -0.53744        3.77640
H         -4.86862        0.51279        2.62333
C         -4.70520       -1.27424       -0.65617
H         -4.50928       -1.43551       -1.72989
H         -4.58981       -2.26256       -0.17810
C         -6.12545       -0.73728       -0.46565
H         -6.86517       -1.44529       -0.86789
H         -6.37474       -0.57393        0.59322
H         -6.27293        0.21732       -0.99323
C         -3.52482        1.63996       -0.54645
H         -2.52239        2.09043       -0.62224
H         -3.92398        1.62505       -1.57564
C         -4.40829        2.49125        0.36801
H         -3.99030        2.56410        1.38393
H         -4.50130        3.51654       -0.01998
H         -5.42751        2.08685        0.45892
C          1.96026       -2.46339        0.00653
C          1.08614        2.47622       -0.16502
C          3.20125       -3.32330        0.22759
H          3.95838       -3.18687       -0.55401
H          3.66030       -3.16379        1.21080
H          2.86830       -4.36943        0.18482
C          1.40316       -2.80301       -1.37585
H          0.45452       -2.28803       -1.59261
H          2.12531       -2.53875       -2.16194
H          1.21273       -3.88357       -1.43281
C          0.97447       -2.77821        1.13197
H          1.39872       -2.50288        2.10855
H          0.01336       -2.25570        1.01287
H          0.76827       -3.85741        1.13854
C          1.95445        3.72452       -0.03833
H          2.43828        3.80955        0.94210
H          2.71410        3.79601       -0.82622
H          1.28153        4.58596       -0.14985
C          0.44045        2.50561       -1.55063
H          1.20854        2.46706       -2.33661
H         -0.25875        1.67223       -1.71483
H         -0.12139        3.44280       -1.66721
C          0.06071        2.51052        0.96839
H         -0.64089        1.66552        0.92613
H          0.56380        2.49056        1.94617
H         -0.52344        3.43907        0.90204
Cl         5.01332       -0.98337        0.49997
Cl         4.45469        2.17225        0.38543
