97
5u_diome_dipp_au_hsiet3.log	Energy: -1285972.0403108
N          0.81681        1.59249        0.20761
N          2.11799       -0.11914        0.20258
C          2.07949        2.05498        0.59213
C          3.05339       -1.90812       -1.15549
C          0.84563        0.26851       -0.02151
C          2.90194        0.95357        0.58014
C         -0.78154        2.79301       -1.19614
C         -0.35558        2.40602        0.08660
C          2.56888       -1.47343        0.08700
C          3.44551       -3.24550       -1.25267
H          3.82497       -3.62806       -2.20271
C         -2.18559        3.54290        1.12836
H         -2.73970        3.84528        2.01839
C         -1.94744        3.56225       -1.27475
H         -2.31492        3.88018       -2.25290
C         -1.03136        2.76836        1.26568
C          2.47040       -2.30207        1.21454
C         -2.63979        3.93421       -0.12833
H         -3.54435        4.54079       -0.21327
C          3.35962       -4.09622       -0.15480
H          3.67400       -5.13792       -0.25082
C          2.87909       -3.62986        1.06477
H          2.82144       -4.31023        1.91742
C          3.12569       -0.98627       -2.35558
H          2.88529        0.03210       -2.01124
C         -0.56564        2.28110        2.62400
H          0.51635        2.09219        2.55596
C         -0.76432        3.31069        3.73097
H         -0.30369        2.95405        4.66398
H         -1.82910        3.48879        3.94625
H         -0.30137        4.27363        3.47014
C          4.53171       -0.93762       -2.95009
H          4.57639       -0.20910       -3.77382
H          4.83554       -1.91340       -3.35880
H          5.27211       -0.64572       -2.19064
C         -1.24569        0.95298        2.96537
H         -0.88488        0.56573        3.93051
H         -2.33759        1.08060        3.03735
H         -1.04341        0.19017        2.19761
C          2.07493       -1.37003       -3.39820
H          2.25592       -2.38121       -3.79448
H          1.06178       -1.35782       -2.96516
H          2.09307       -0.66876       -4.24679
C         -0.04126        2.40581       -2.46245
H          0.87714        1.87339       -2.16850
C         -0.87331        1.44700       -3.31492
H         -1.14913        0.54357       -2.74733
H         -1.80393        1.92368       -3.65990
H         -0.30849        1.12846       -4.20381
C          0.37873        3.63111       -3.27491
H          0.99187        4.32505       -2.68218
H          0.96788        3.32366       -4.15196
H         -0.49351        4.19080       -3.64560
C          1.95117       -1.79586        2.54479
H          1.65296       -0.74388        2.41390
C          3.04921       -1.82428        3.60775
H          2.68192       -1.40326        4.55616
H          3.38839       -2.85227        3.80856
H          3.92301       -1.23920        3.28486
C          0.70330       -2.56044        2.98323
H         -0.08523       -2.50214        2.21660
H          0.92013       -3.62494        3.16126
H          0.30184       -2.14252        3.91909
Au        -0.70561       -0.92094       -0.52769
H         -1.89931       -1.97617       -1.06164
Si        -3.29848       -1.52917       -0.26626
C         -4.32523       -2.55307       -1.46724
H         -3.94728       -2.35144       -2.48430
H         -4.11167       -3.61879       -1.27442
C         -5.82904       -2.27975       -1.40971
H         -6.06194       -1.23514       -1.66696
H         -6.36991       -2.91685       -2.12540
H         -6.25294       -2.47807       -0.41400
C         -3.70844        0.30997       -0.34969
H         -2.81569        0.90816       -0.10525
H         -3.94767        0.54951       -1.40026
C         -4.85482        0.71722        0.57766
H         -5.06992        1.79149        0.47432
H         -5.78702        0.17325        0.36368
H         -4.60183        0.53825        1.63407
C         -3.19508       -2.25982        1.46359
H         -2.50975       -3.12318        1.41444
H         -2.70351       -1.52428        2.12187
C         -4.53922       -2.69654        2.05011
H         -5.01100       -3.48343        1.44263
H         -4.40922       -3.10450        3.06369
H         -5.25325       -1.86271        2.12444
C          2.35212        4.33170        0.03898
H          3.05269        4.06838       -0.76997
H          1.35410        4.52703       -0.38087
H          2.70780        5.23024        0.55681
C          4.98505        1.85196        1.17281
H          5.98513        1.45415        1.37677
H          5.03426        2.54588        0.31822
H          4.60522        2.38425        2.05678
O          2.29946        3.29725        1.01624
O          4.17217        0.73211        0.86236
