97
5u_dinme2_ad_au_hsiet3.log	Energy: -1213372.4983213
N          2.16479        0.00131        0.01202
N          0.85993        1.76256       -0.01734
C          0.87348        0.40910       -0.03796
Au        -0.73351       -0.85977       -0.20963
H         -1.79763       -2.12516       -0.49052
C          2.17975        2.23100        0.03147
C          2.99728        1.12800        0.05160
Si        -3.34157       -1.85004       -0.03339
C         -3.51422       -1.07390        1.67384
H         -2.65164       -1.39736        2.28143
H         -3.42099        0.01972        1.57832
C         -4.81902       -1.43871        2.38644
H         -4.89722       -2.52167        2.56394
H         -4.87801       -0.94452        3.36770
H         -5.70653       -1.13109        1.81332
C         -3.73117       -3.69361       -0.04103
H         -3.15743       -4.15553       -0.86261
H         -3.32243       -4.12622        0.88900
C         -5.21465       -4.03383       -0.19465
H         -5.36968       -5.12293       -0.17274
H         -5.83018       -3.60203        0.60837
H         -5.61690       -3.67027       -1.15246
C         -4.14069       -0.91640       -1.45582
H         -3.50404       -0.05584       -1.71918
H         -4.11448       -1.58402       -2.33476
C         -5.56902       -0.44634       -1.17540
H         -5.60526        0.26774       -0.33837
H         -5.99503        0.06214       -2.05320
H         -6.24106       -1.28092       -0.92594
C          2.56384       -1.44517        0.01836
C          2.10536       -2.10244       -1.29412
C          4.08361       -1.65720        0.12662
C          1.92280       -2.13790        1.23328
H          2.61084       -1.60521       -2.13881
H          1.02213       -1.95222       -1.44183
C          2.41378       -3.60026       -1.27802
H          4.46773       -1.20197        1.04935
H          4.59841       -1.18285       -0.71872
C          4.41129       -3.15740        0.13177
H          0.82969       -1.99038        1.22817
H          2.30109       -1.66434        2.15468
C          2.23192       -3.63518        1.22167
H          2.04349       -4.04639       -2.21487
C          3.92476       -3.80174       -1.16559
C          1.71258       -4.25051       -0.08145
H          5.50524       -3.25989        0.20990
C          3.74310       -3.83742        1.32544
H          1.72950       -4.10540        2.08220
H          4.43358       -3.35033       -2.03344
H          4.17052       -4.87589       -1.17355
H          0.62000       -4.10922       -0.15898
H          1.89290       -5.33740       -0.08361
H          3.98733       -4.91189        1.33842
H          4.11912       -3.41191        2.27063
C         -0.40719        2.56300       -0.00488
C         -1.22782        2.16966        1.23420
C         -0.16521        4.08007        0.06633
C         -1.20359        2.28123       -1.28854
H         -0.64327        2.40152        2.14003
H         -1.40080        1.08120        1.23887
C         -2.56693        2.90885        1.24696
H          0.41837        4.41613       -0.80034
H          0.40537        4.33376        0.96959
C         -1.50362        4.83028        0.08851
H         -1.37767        1.19686       -1.39414
H         -0.60481        2.59225       -2.16063
C         -2.54369        3.01950       -1.25737
H         -3.14170        2.58350        2.12973
C         -2.31487        4.41445        1.31482
C         -3.34329        2.57539       -0.02950
H         -1.28260        5.90817        0.13831
C         -2.29133        4.52515       -1.18505
H         -3.10326        2.77498       -2.17494
H         -1.76991        4.66817        2.23908
H         -3.27046        4.96233        1.34539
H         -3.53944        1.49259       -0.07947
H         -4.32527        3.07519       -0.01726
H         -3.24677        5.07414       -1.18468
H         -1.72954        4.86009       -2.07265
N          4.37263        1.12250        0.08694
N          2.57003        3.55086        0.03708
C          5.13161        1.33367       -1.11873
H          5.55512        2.35467       -1.18123
H          5.97560        0.62203       -1.18123
H          4.49366        1.17557       -1.99885
C          5.07639        1.30295        1.33024
H          5.91090        0.58288        1.41702
H          5.50416        2.31861        1.43324
H          4.39719        1.13302        2.17660
C          3.02527        4.17007        1.25513
H          4.12869        4.23577        1.31664
H          2.62790        5.19799        1.33993
H          2.66904        3.60022        2.12401
C          2.97059        4.18575       -1.19280
H          2.58708        5.22115       -1.23855
H          4.07041        4.23372       -1.31175
H          2.55966        3.63772       -2.05179
