87
5u_dime_ad_au_hsiet3.log	Energy: -1094802.3585597
N          1.21579        2.12992        0.22921
N         -0.96781        2.24246        0.20564
C          0.08694        1.41473        0.01693
Au        -0.02175       -0.57187       -0.52084
H         -0.13565       -2.09375       -1.19239
C         -0.50014        3.51038        0.54530
C          0.87290        3.44001        0.56110
Si        -0.20817       -3.22239        0.02962
C         -0.88525       -2.74675        1.72703
H         -0.43221       -1.79912        2.06155
H         -1.96481       -2.54674        1.61669
C         -0.63753       -3.82862        2.78303
H          0.43752       -3.97990        2.96231
H         -1.08934       -3.54185        3.74445
H         -1.06635       -4.80074        2.49890
C          1.56282       -3.85098        0.06131
H          2.00968       -3.62940       -0.92257
H          2.12707       -3.24260        0.78973
C          1.70861       -5.34234        0.36984
H          2.76814       -5.63854        0.38014
H          1.28629       -5.61148        1.34924
H          1.20684       -5.96256       -0.38816
C         -1.40904       -4.28332       -0.95705
H         -2.21976       -3.61848       -1.30293
H         -0.88801       -4.61632       -1.87171
C         -2.00076       -5.47600       -0.20546
H         -2.59362       -5.15479        0.66441
H         -2.67182       -6.05476       -0.85753
H         -1.22594       -6.16740        0.15801
C          1.78624        4.57371        0.88180
H          1.18835        5.45859        1.12130
H          2.42061        4.37487        1.75413
H          2.43653        4.84764        0.04158
C         -1.30293        4.73191        0.83710
H         -1.92367        5.04388       -0.01182
H         -1.95466        4.61430        1.71182
H         -0.62558        5.56335        1.05549
C          2.57646        1.50347        0.07358
C          2.74458        1.02565       -1.37901
C          3.73320        2.46934        0.36854
C          2.71396        0.32844        1.05723
H          2.67220        1.89573       -2.05259
H          1.92349        0.34319       -1.65536
C          4.08290        0.30679       -1.55536
H          3.66655        2.84004        1.40021
H          3.69381        3.33070       -0.31071
C          5.08577        1.76679        0.18499
H          1.88971       -0.38959        0.91382
H          2.62542        0.71101        2.08781
C          4.05025       -0.38798        0.85252
H          4.15586       -0.04992       -2.59503
C          5.22403        1.27792       -1.25577
C          4.14832       -0.88284       -0.59376
H          5.87657        2.50023        0.40776
C          5.19308        0.58339        1.14514
H          4.09937       -1.24462        1.54447
H          5.19370        2.12907       -1.95592
H          6.19780        0.78224       -1.39717
H          3.32817       -1.58817       -0.80994
H          5.08991       -1.43599       -0.73962
H          6.16605        0.08128        1.02218
H          5.14090        0.92934        2.19076
C         -2.38303        1.75011        0.05427
C         -2.63200        0.63053        1.07838
C         -3.44732        2.82841        0.30552
C         -2.59153        1.24402       -1.38361
H         -2.51474        1.04316        2.09446
H         -1.87371       -0.15949        0.96960
C         -4.02446        0.02827        0.89049
H         -3.32651        3.65853       -0.40306
H         -3.35413        3.22797        1.32394
C         -4.85757        2.24266        0.13755
H         -1.83217        0.48722       -1.64173
H         -2.44716        2.08432       -2.08285
C         -3.98517        0.63470       -1.54130
H         -4.15367       -0.79375        1.61349
C         -5.07605        1.10898        1.13844
C         -4.15644       -0.50982       -0.53758
H         -5.57996        3.05180        0.32808
C         -5.03721        1.71275       -1.28397
H         -4.08591        0.24840       -2.56800
H         -4.99716        1.48551        2.17170
H         -6.09034        0.69378        1.02559
H         -3.39649       -1.29062       -0.72112
H         -5.14039       -0.98661       -0.67268
H         -6.05108        1.30027       -1.41007
H         -4.93068        2.52947       -2.01681
