75
5u_dinme2_ptolu_au_hsiet3.log	Energy: -1064082.4167545
N          2.29307        0.13153       -0.02704
N          0.73655        1.61542       -0.01812
C          0.95719        0.28678       -0.05201
Au        -0.48721       -1.13061       -0.05235
H         -1.60488       -2.38861       -0.01748
C          2.95394       -1.13089       -0.03208
C          2.70244       -2.04586        0.98785
C          3.84768       -1.44278       -1.05634
C          3.33806       -3.28535        0.97062
C          4.48208       -2.67884       -1.05289
C          4.24004       -3.62316       -0.04389
H          3.13432       -4.00149        1.77036
H          5.17748       -2.92282       -1.86010
C         -0.56100        2.20235       -0.04430
C         -1.03639        2.89809        1.06587
C         -1.35429        2.06306       -1.18152
C         -2.32029        3.43213        1.03760
C         -2.63905        2.59994       -1.19421
C         -3.14877        3.28463       -0.08450
H         -2.69282        3.97117        1.91234
H         -3.25583        2.49020       -2.08949
C          4.94530       -4.94599       -0.05197
H          4.52502       -5.63446        0.69332
H          4.87956       -5.42674       -1.03950
H          6.01619       -4.81950        0.17485
C         -4.54852        3.82140       -0.08095
H         -4.60171        4.80656        0.40435
H         -4.94886        3.91701       -1.09943
H         -5.21993        3.14881        0.47858
C          1.94283        2.32579        0.05025
C          2.94269        1.37607        0.01349
Si        -3.11458       -1.68344        0.03940
C         -3.29279       -0.35499        1.36323
H         -2.61958       -0.61476        2.19802
H         -2.90890        0.59288        0.95075
C         -4.71914       -0.17216        1.88773
H         -5.09359       -1.08090        2.38229
H         -4.75698        0.63945        2.63025
H         -5.42916        0.08475        1.08739
C         -3.89962       -3.32826        0.51394
H         -3.37104       -4.12693       -0.03382
H         -3.68396       -3.50517        1.58222
C         -5.40161       -3.42147        0.23919
H         -5.79829       -4.39509        0.56376
H         -5.97479       -2.64511        0.76761
H         -5.62395       -3.32477       -0.83440
C         -3.53697       -1.12526       -1.70680
H         -2.71115       -0.49644       -2.07777
H         -3.54802       -2.02069       -2.35212
C         -4.85760       -0.36066       -1.81217
H         -4.83481        0.56537       -1.21764
H         -5.06468       -0.07506       -2.85472
H         -5.71489       -0.95564       -1.46359
H          4.03666       -0.71988       -1.85090
H          2.01804       -1.78256        1.79751
H         -0.40293        3.00966        1.94707
H         -0.95808        1.53965       -2.05450
N          4.31017        1.47298       -0.03626
N          1.95888        3.69157        0.19401
C          4.91829        2.42316       -0.93749
H          5.11119        3.40983       -0.47508
H          5.88577        2.02943       -1.28965
H          4.27322        2.57109       -1.81445
C          5.08892        1.09327        1.12323
H          6.08411        0.74634        0.80549
H          5.22557        1.93003        1.83577
H          4.60319        0.26189        1.65202
C          1.63558        4.52184       -0.94716
H          1.23968        5.48890       -0.60155
H          2.51289        4.71912       -1.59378
H          0.85592        4.04440       -1.55619
C          2.83275        4.27824        1.18369
H          3.83950        4.52340        0.79540
H          2.38664        5.21364        1.55844
H          2.94662        3.59206        2.03414
