109
5u_diph_dipp_au_hsiet3.log	Energy: -1431967.7391960
N         -0.64730        1.11803        0.12566
N         -1.44053       -0.86871       -0.07908
C         -2.01640        1.26872       -0.07472
C         -1.84081       -2.98547        1.04738
C         -0.29946       -0.18282        0.11177
C         -2.52960       -0.00783       -0.17146
C          0.72816        2.47729        1.61524
C          0.29991        2.17663        0.31014
C         -1.48184       -2.30088       -0.12304
C         -1.85542       -4.38154        0.99148
H         -2.12753       -4.95223        1.88194
C          1.66783        3.90165       -0.62585
H          2.04094        4.46245       -1.48536
C          1.64915        3.51958        1.75788
H          2.00683        3.78611        2.75496
C          0.74914        2.86773       -0.82578
C         -1.15467       -2.94613       -1.32805
C          2.11078        4.22672        0.65240
H          2.82480        5.04212        0.78905
C         -1.52609       -5.05324       -0.18110
H         -1.54252       -6.14517       -0.20408
C         -1.17992       -4.34334       -1.32667
H         -0.92961       -4.88621       -2.24084
C         -2.16838       -2.25691        2.33462
H         -2.23861       -1.18258        2.10674
C          0.29646        2.49196       -2.22161
H         -0.54735        1.79253       -2.12633
C         -0.21349        3.69751       -3.00692
H         -0.60842        3.37698       -3.98260
H          0.58531        4.42949       -3.20191
H         -1.02188        4.20920       -2.46359
C         -3.52264       -2.67860        2.90047
H         -3.76768       -2.07976        3.79058
H         -3.52723       -3.73630        3.20559
H         -4.32340       -2.53311        2.16010
C          1.41430        1.74884       -2.95523
H          1.08158        1.43120       -3.95531
H          2.30271        2.38754       -3.08238
H          1.72062        0.85034       -2.39644
C         -1.03633       -2.42835        3.34894
H         -0.91076       -3.48450        3.63400
H         -0.07679       -2.07719        2.93681
H         -1.24585       -1.85573        4.26568
C          0.23384        1.72563        2.83745
H         -0.51626        0.99159        2.50407
C          1.37031        0.94701        3.50094
H          1.84219        0.24760        2.79184
H          2.15374        1.62280        3.87767
H          0.99308        0.36137        4.35268
C         -0.45185        2.65321        3.84111
H         -1.30023        3.18985        3.39158
H         -0.83740        2.07374        4.69340
H          0.24572        3.40443        4.24192
C         -0.78406       -2.18659       -2.58882
H         -0.94315       -1.11354       -2.39591
C         -1.66689       -2.57148       -3.77607
H         -1.40945       -1.96239       -4.65565
H         -1.53215       -3.62697       -4.05707
H         -2.73480       -2.41634       -3.56308
C          0.69498       -2.37560       -2.92595
H          1.33515       -2.06602       -2.08486
H          0.92208       -3.42995       -3.14797
H          0.97455       -1.77662       -3.80621
Au         1.56149       -0.93043        0.35378
H          3.03463       -1.67131        0.68424
Si         4.22286       -0.73540       -0.01198
C          5.53893       -1.58117        1.03553
H          5.15240       -1.64392        2.06734
H          5.63476       -2.62440        0.68772
C          6.89750       -0.87857        1.03296
H          6.82683        0.14295        1.43687
H          7.62111       -1.42359        1.65746
H          7.32953       -0.80635        0.02372
C          4.09755        1.11251        0.33605
H          3.06174        1.45543        0.18353
H          4.30496        1.26425        1.40937
C          5.03686        1.95645       -0.52712
H          4.94432        3.02141       -0.26587
H          6.09410        1.67798       -0.40209
H          4.79263        1.86383       -1.59659
C          4.27323       -1.20954       -1.83109
H          3.86825       -2.23203       -1.91770
H          3.56817       -0.56121       -2.37809
C          5.66533       -1.14675       -2.46311
H          6.36404       -1.84309       -1.97550
H          5.62429       -1.42199       -3.52764
H          6.10571       -0.14028       -2.40425
C         -2.67635        2.56012       -0.29503
C         -3.60052        2.66850       -1.34692
C         -2.39018        3.69482        0.47676
C         -4.22414        3.88153       -1.61578
H         -3.82019        1.79339       -1.96198
C         -3.01326        4.90875        0.20006
H         -1.67917        3.63268        1.29976
C         -3.93008        5.00652       -0.84495
H         -4.93839        3.95153       -2.43894
H         -2.78126        5.78434        0.81002
H         -4.41651        5.96052       -1.05986
C         -3.92684       -0.45214       -0.19961
C         -4.85484        0.20210        0.62673
C         -4.35873       -1.52700       -0.98868
C         -6.18262       -0.20836        0.65830
H         -4.52425        1.03100        1.25601
C         -5.68837       -1.93774       -0.94944
H         -3.65528       -2.04655       -1.63806
C         -6.60290       -1.28164       -0.12765
H         -6.89271        0.30697        1.30856
H         -6.01124       -2.77698       -1.56910
H         -7.64498       -1.60740       -0.09809
