71
5u_dih_dImes_auhsi.log	Energy: -994764.6709245
N          0.28227       -2.32647       -0.11035
C          0.99609       -1.18453       -0.04355
N          2.28888       -1.55385       -0.09963
C         -1.15027       -2.36239       -0.08090
C         -1.84947       -2.22728       -1.28762
C         -3.24469       -2.22878       -1.22641
H         -3.81156       -2.12614       -2.15581
C         -3.93209       -2.36338       -0.01577
C         -3.18876       -2.49097        1.16224
H         -3.71136       -2.59069        2.11739
C         -1.79268       -2.49291        1.15787
C         -1.00561       -2.59887        2.42995
H         -0.39782       -1.69457        2.59857
H         -0.30957       -3.45160        2.41076
H         -1.67003       -2.72572        3.29394
C         -5.43060       -2.39971        0.01582
H         -5.86801       -1.82790       -0.81470
H         -5.82556       -1.99961        0.96015
H         -5.79281       -3.43691       -0.07624
C         -1.12394       -2.05786       -2.58902
H         -0.56925       -1.10516       -2.61330
H         -1.82492       -2.06123       -3.43330
H         -0.38853       -2.85984       -2.75494
C          3.38611       -0.63112       -0.05808
C          3.91928       -0.28061        1.18914
C          4.97742        0.62916        1.20143
H          5.41044        0.91846        2.16269
C          5.49543        1.17747        0.02358
C          4.92181        0.80231       -1.19566
H          5.31101        1.22811       -2.12433
C          3.86244       -0.10339       -1.26526
C          3.24093       -0.48329       -2.57662
H          3.24162       -1.57355       -2.73059
H          3.78131       -0.02438       -3.41411
H          2.19098       -0.15148       -2.63038
C          6.65842        2.12273        0.06498
H          6.63824        2.82634       -0.77888
H          7.60877        1.56691        0.00539
H          6.67663        2.70113        0.99918
C          3.35772       -0.84644        2.45989
H          3.94162       -0.51546        3.32793
H          3.35572       -1.94747        2.45350
H          2.31482       -0.52335        2.61278
C          1.12388       -3.41631       -0.20864
H          0.74572       -4.43280       -0.27539
C          2.39375       -2.92670       -0.20152
H          3.35703       -3.42614       -0.25975
Au         0.22162        0.67182        0.10646
H         -0.30857        2.26266        0.25410
Si        -1.96908        2.22612        0.08303
C         -2.04399        4.09435        0.29793
H         -1.33298        4.37034        1.09526
H         -1.64956        4.55244       -0.62593
C         -3.43188        4.64605        0.62908
H         -3.80344        4.25902        1.58998
H         -3.40510        5.74283        0.71175
H         -4.17771        4.39669       -0.14028
C         -2.76839        1.26156        1.48679
H         -2.30434        0.26216        1.53521
H         -2.51935        1.76599        2.43631
C         -4.28212        1.10261        1.32866
H         -4.70450        0.53899        2.17437
H         -4.80586        2.06919        1.28786
H         -4.53290        0.54630        0.41308
C         -2.44342        1.62816       -1.63719
H         -1.60025        1.83571       -2.31788
H         -2.53852        0.52964       -1.59034
C         -3.72462        2.25689       -2.19035
H         -3.62698        3.34685       -2.30496
H         -3.96345        1.84742       -3.18343
H         -4.59431        2.06871       -1.54303
