57
5u_dif_tbu_au_hsiet3.log	Energy: -878858.8706993
N          2.59120       -0.82881        0.12476
N          2.11496        1.31029        0.05369
C          1.58558        0.06468       -0.06261
Au        -0.36388       -0.40079       -0.47007
H         -1.87265       -0.92144       -0.97903
C          3.46018        1.18994        0.31617
C          3.75492       -0.13331        0.35920
Si        -3.05252       -0.23354       -0.02913
C         -2.74151       -0.45472        1.81558
H         -2.15396       -1.37825        1.95596
H         -2.09669        0.36846        2.16763
C         -4.02361       -0.52712        2.65044
H         -4.64309       -1.39127        2.36806
H         -3.78549       -0.63380        3.71910
H         -4.64299        0.37576        2.54348
C         -4.34028       -1.41641       -0.72309
H         -4.11479       -1.57480       -1.79143
H         -4.19536       -2.39697       -0.23711
C         -5.78499       -0.93683       -0.56611
H         -6.48630       -1.67690       -0.97926
H         -6.06337       -0.77788        0.48615
H         -5.96008        0.00787       -1.10300
C         -3.27764        1.54363       -0.60238
H         -2.29309        2.03568       -0.65310
H         -3.64831        1.51002       -1.64173
C         -4.21960        2.35964        0.28562
H         -3.83135        2.45352        1.31154
H         -4.34604        3.37873       -0.10911
H         -5.22260        1.91234        0.35220
C          2.42202       -2.33020        0.07768
C          1.32486        2.59080       -0.07535
C          3.75174       -3.03864        0.32910
H          4.50506       -2.80173       -0.43300
H          4.16556       -2.81771        1.32127
H          3.55802       -4.11862        0.28161
C          1.92309       -2.71353       -1.31389
H          0.93610       -2.28053       -1.53918
H          2.63026       -2.38439       -2.08898
H          1.82859       -3.80647       -1.37596
C          1.43992       -2.73565        1.17490
H          1.80814       -2.42762        2.16433
H          0.44205       -2.29652        1.02313
H          1.32856       -3.82882        1.17417
C          2.22479        3.81253        0.09985
H          2.68886        3.85503        1.09336
H          3.01086        3.86834       -0.66404
H          1.58969        4.70188       -0.00992
C          0.71212        2.63870       -1.47365
H          1.49550        2.61091       -2.24480
H          0.01996        1.80312       -1.65716
H          0.14935        3.57538       -1.59060
C          0.26552        2.60649        1.02498
H         -0.42970        1.75873        0.94066
H          0.73415        2.57058        2.01925
H         -0.31949        3.53421        0.95418
F          4.92287       -0.66734        0.58004
F          4.28723        2.18234        0.48850
