63
5u_dicf3_tbu_au_hsiet3.log	Energy: -1176798.4292203
N          1.72793       -1.08949        0.00198
N          1.38584        1.07002       -0.15384
C          0.77799       -0.14124       -0.18596
Au        -1.22286       -0.49721       -0.48931
H         -2.78593       -0.93927       -0.89385
C          2.73264        0.88443        0.10427
C          2.96055       -0.46942        0.10472
Si        -3.87014       -0.09643        0.05166
C         -3.47962       -0.20554        1.89093
H         -2.95732       -1.15978        2.07607
H         -2.75725        0.58833        2.14696
C         -4.71831       -0.11490        2.78763
H         -5.41479       -0.94593        2.60168
H         -4.43299       -0.16159        3.84897
H         -5.27290        0.82371        2.64072
C         -5.26689       -1.23188       -0.49339
H         -5.10545       -1.48461       -1.55513
H         -5.16466       -2.18144        0.06030
C         -6.66634       -0.64028       -0.31030
H         -7.43546       -1.35882       -0.63017
H         -6.87975       -0.38097        0.73719
H         -6.80463        0.26980       -0.91350
C         -3.99342        1.64637       -0.64294
H         -2.97931        2.06227       -0.75498
H         -4.39934        1.56651       -1.66648
C         -4.84669        2.58801        0.21000
H         -4.41721        2.72819        1.21390
H         -4.91678        3.58235       -0.25546
H         -5.87495        2.21876        0.33929
C          4.32691       -1.08255       -0.16014
C          3.70543        1.89184        0.69621
C          1.38721       -2.55860        0.22678
C          0.66240        2.35868       -0.52371
C          2.56975       -3.34587        0.78771
H          3.35935       -3.53577        0.05746
H          2.99690       -2.86840        1.67943
H          2.18379       -4.32534        1.09847
C          0.93819       -3.15179       -1.10325
H          0.69025       -4.21382       -0.96788
H          0.04389       -2.64290       -1.49617
H          1.73985       -3.07676       -1.85139
C          0.29912       -2.64031        1.30331
H          0.62392       -2.14090        2.22796
H         -0.66318       -2.20756        0.99372
H          0.11654       -3.69875        1.53175
C          1.62592        3.51776       -0.77001
H          2.08025        3.91571        0.14002
H          2.41072        3.25437       -1.49111
H          1.03915        4.33220       -1.21444
C         -0.05327        2.14011       -1.86153
H          0.66412        1.85359       -2.64433
H         -0.84391        1.37725       -1.82595
H         -0.52602        3.08483       -2.16202
C         -0.29579        2.70323        0.61088
H         -1.03000        1.90115        0.77970
H          0.25789        2.87017        1.54567
H         -0.84401        3.62383        0.36570
F          4.21065       -1.99846       -1.12709
F          5.14298       -0.14560       -0.62682
F          4.90222       -1.63930        0.89249
F          4.62811        1.24843        1.40021
F          3.04694        2.67225        1.56039
F          4.32420        2.65680       -0.18741
