71
5u_dif_mes_au_hsiet3.log	Energy: -1119082.3843766
N          2.30095        1.12205        0.12301
N          0.36851        2.08486        0.13853
C          0.97579        0.88045        0.05910
Au         0.02410       -0.88627       -0.14927
H         -0.65708       -2.40761       -0.36098
C          3.32062        0.11373        0.07342
C          3.59934       -0.61549        1.23635
C          3.97978       -0.10415       -1.14363
C          4.57743       -1.60713        1.14743
C          4.94844       -1.10668       -1.17528
C          5.26292       -1.86685       -0.04340
H          4.81540       -2.19125        2.04029
H          5.47451       -1.29974       -2.11389
C         -1.05267        2.27289        0.10564
C         -1.77637        2.10981        1.29418
C         -1.65697        2.57801       -1.12083
C         -3.16381        2.24756        1.22167
C         -3.04638        2.70968       -1.13552
C         -3.81619        2.54980        0.02153
H         -3.75213        2.12608        2.13525
H         -3.54181        2.94562       -2.08101
C          3.65502        0.71467       -2.35728
H          2.57379        0.71661       -2.56832
H          3.96808        1.76315       -2.22632
H          4.17164        0.32478       -3.24333
C          2.86974       -0.35436        2.52099
H          2.81492        0.72043        2.75192
H          1.83397       -0.73017        2.47573
H          3.36799       -0.85476        3.36093
C          6.33604       -2.91188       -0.09915
H          6.18282       -3.69153        0.65960
H          6.38145       -3.39166       -1.08691
H          7.32330       -2.45868        0.08934
C         -0.83652        2.75013       -2.36363
H         -0.16815        3.62222       -2.28204
H         -0.20407        1.86854       -2.55572
H         -1.47781        2.90539       -3.24031
C         -1.08665        1.79525        2.58811
H         -0.57615        0.81933        2.54765
H         -0.32232        2.54996        2.83114
H         -1.80401        1.76696        3.41798
C         -5.30324        2.73401       -0.01702
H         -5.56294        3.79199        0.15220
H         -5.72183        2.44805       -0.99203
H         -5.80593        2.14664        0.76407
C          1.31208        3.08384        0.24207
C          2.52851        2.47776        0.23188
Si        -2.30620       -2.22804       -0.14895
C         -2.68121       -1.72837        1.62598
H         -1.84220       -2.05892        2.26167
H         -2.68153       -0.62561        1.66502
C         -3.99768       -2.28793        2.17085
H         -3.99276       -3.38791        2.19635
H         -4.17317       -1.94140        3.20037
H         -4.86451       -1.97464        1.56976
C         -2.55514       -4.05907       -0.50467
H         -1.89042       -4.33335       -1.34153
H         -2.18301       -4.62163        0.36941
C         -3.99470       -4.45740       -0.83542
H         -4.07011       -5.54296       -0.99744
H         -4.69774       -4.19973       -0.02940
H         -4.34940       -3.96839       -1.75523
C         -3.04203       -1.08439       -1.44842
H         -2.49912       -0.12446       -1.42445
H         -2.85018       -1.52429       -2.44228
C         -4.53540       -0.81894       -1.24437
H         -4.72744       -0.32783       -0.27866
H         -4.92095       -0.14964       -2.02826
H         -5.13633       -1.73972       -1.27753
F          3.73244        2.96346        0.29842
F          0.97171        4.33656        0.32164
