59
5u_dicl_ptolu_au_hsiet3.log	Energy: -1472685.1076320
N          2.42370        0.68326        0.04250
N          0.67080        1.94487        0.04720
C          1.07515        0.65637        0.01961
Au        -0.14513       -0.95063       -0.12189
H         -1.04096       -2.35601       -0.31064
C          3.24913       -0.48470        0.03286
C          3.17949       -1.37664        1.10003
C          4.09489       -0.72675       -1.04748
C          3.96074       -2.52801        1.07510
C          4.87497       -1.87692       -1.05116
C          4.82375       -2.79718        0.00568
H          3.90500       -3.22877        1.91153
H          5.53552       -2.06923       -1.90010
C         -0.70042        2.35003        0.04102
C         -1.48382        2.11948        1.16936
C         -1.24435        2.94207       -1.09628
C         -2.82788        2.47961        1.14992
C         -2.58806        3.30161       -1.09689
C         -3.40291        3.07968        0.02205
H         -3.44207        2.30015        2.03600
H         -3.01540        3.76296       -1.99048
C          5.69290       -4.01780        0.00085
H          5.29374       -4.80278        0.65741
H          5.79925       -4.43233       -1.01171
H          6.70572       -3.77042        0.35925
C         -4.84019        3.50307        0.02125
H         -4.92966        4.55775        0.32949
H         -5.28636        3.41832       -0.97959
H         -5.44032        2.90591        0.72162
C          1.76627        2.79200        0.07724
C          2.87639        1.99364        0.07544
Si        -2.64669       -1.95353       -0.08295
C         -2.91790       -1.60384        1.74535
H         -2.12598       -2.12382        2.31086
H         -2.75027       -0.52583        1.90937
C         -4.29295       -2.02484        2.26941
H         -4.44954       -3.10958        2.17204
H         -4.39783       -1.77780        3.33645
H         -5.11462       -1.52329        1.73636
C         -3.15304       -3.68547       -0.61831
H         -2.54267       -3.95575       -1.49692
H         -2.84890       -4.38251        0.18211
C         -4.63729       -3.85224       -0.94884
H         -4.86039       -4.89542       -1.21792
H         -5.28884       -3.58899       -0.10234
H         -4.93476       -3.22782       -1.80472
C         -3.24037       -0.59377       -1.24178
H         -2.57660        0.28164       -1.14449
H         -3.12283       -0.95392       -2.27841
C         -4.68451       -0.16331       -0.97352
H         -4.79943        0.25033        0.03974
H         -4.99168        0.62312       -1.67926
H         -5.39928       -0.99281       -1.07820
H          4.13628       -0.02351       -1.88152
H          2.52354       -1.16450        1.94699
H         -1.03757        1.66491        2.05639
H         -0.62080        3.11263       -1.97613
Cl         4.50373        2.42144        0.14863
Cl         1.64304        4.47052        0.14101
