59
5u_dif_ptolu_au_hsiet3.log	Energy: -1020569.9813910
N          2.44090        1.23466        0.04391
N          0.52351        2.22674        0.00497
C          1.10997        1.00765       -0.00788
Au         0.12656       -0.75641       -0.12518
H         -0.57055       -2.27285       -0.28848
C          3.45168        0.22336        0.01505
C          4.37386        0.13908        1.05605
C          3.49420       -0.67052       -1.05247
C          5.34145       -0.85800        1.02260
C          4.46197       -1.67026       -1.06213
C          5.40342       -1.78083       -0.03131
H          6.06253       -0.92662        1.84068
H          4.49363       -2.37325       -1.89791
C         -0.88997        2.44800        0.00146
C         -1.63456        2.11436        1.13085
C         -1.50730        2.96671       -1.13379
C         -3.01383        2.29552        1.11317
C         -2.88679        3.14685       -1.13230
C         -3.66395        2.81703       -0.01336
H         -3.59826        2.03535        1.99934
H         -3.37188        3.55065       -2.02421
C          6.46928       -2.83331       -0.06571
H          6.68316       -3.22230        0.93997
H          6.18690       -3.67591       -0.71131
H          7.41020       -2.41517       -0.45972
C         -5.14439        3.04699       -0.01192
H         -5.37173        4.07779        0.30611
H         -5.57552        2.91374       -1.01403
H         -5.66031        2.36940        0.68228
C          1.48213        3.21629        0.06557
C          2.68846        2.59227        0.09234
Si        -2.20926       -2.09761       -0.00617
C         -2.47564       -1.75807        1.82457
H         -1.59787       -2.14018        2.37291
H         -2.46958       -0.66407        1.96652
C         -3.75498       -2.37244        2.39798
H         -3.74660       -3.47012        2.32294
H         -3.86547       -2.12234        3.46371
H         -4.65867       -2.01296        1.88320
C         -2.48326       -3.89174       -0.50427
H         -1.86772       -4.08989       -1.39834
H         -2.06208       -4.52639        0.29499
C         -3.93955       -4.26640       -0.78529
H         -4.02487       -5.33489       -1.03312
H         -4.59536       -4.08005        0.07813
H         -4.34542       -3.70374       -1.63948
C         -3.02178       -0.85389       -1.16303
H         -2.48074        0.10536       -1.10370
H         -2.89340       -1.21504       -2.19800
C         -4.50067       -0.61874       -0.84607
H         -4.63445       -0.20797        0.16609
H         -4.93722        0.10682       -1.54878
H         -5.09899       -1.53927       -0.91393
H          2.78225       -0.57553       -1.87524
H          4.33013        0.84215        1.89014
H         -1.13162        1.71970        2.01626
H         -0.91305        3.21888       -2.01441
F          3.89689        3.06724        0.13527
F          1.16363        4.47525        0.09474
