87
5u_dinme2_mes_au_hsiet3.log	Energy: -1162594.3826798
N          2.17715        0.16628        0.00710
N          0.57989        1.60649        0.00418
C          0.83989        0.28647        0.00215
Au        -0.55139       -1.17585       -0.04165
H         -1.60720       -2.48444       -0.10688
C          2.86119       -1.08919       -0.00103
C          3.37459       -1.58274        1.20628
C          2.97743       -1.78674       -1.21105
C          4.03056       -2.81291        1.17421
C          3.64417       -3.01394       -1.18832
C          4.18099       -3.54143       -0.01097
H          4.43397       -3.21784        2.10637
H          3.74797       -3.57365       -2.12181
C         -0.74468        2.14203        0.00807
C         -1.45620        2.16915        1.21601
C         -1.29766        2.58603       -1.20088
C         -2.76242        2.66441        1.18743
C         -2.60520        3.07384       -1.17451
C         -3.35259        3.12523        0.00679
H         -3.33311        2.69801        2.11977
H         -3.05535        3.42112       -2.10853
C          2.39014       -1.25135       -2.48460
H          1.29908       -1.41030       -2.51548
H          2.55455       -0.16860       -2.59465
H          2.82320       -1.75548       -3.35831
C          3.21142       -0.81504        2.48285
H          3.81013        0.10838        2.46193
H          2.16225       -0.52020        2.64217
H          3.53483       -1.41106        3.34580
C          4.92329       -4.84442       -0.01754
H          4.72467       -5.42531        0.89457
H          4.65323       -5.46094       -0.88583
H          6.01108       -4.67048       -0.06123
C         -0.51091        2.51989       -2.47392
H          0.34091        3.21596       -2.43918
H         -0.09999        1.51117       -2.63864
H         -1.13340        2.78369       -3.33842
C         -0.84799        1.66307        2.49102
H         -0.79730        0.56147        2.49747
H          0.18274        2.02400        2.62746
H         -1.43996        1.97671        3.36062
C         -4.74293        3.68705        0.00995
H         -4.71735        4.78244        0.13189
H         -5.26543        3.47781       -0.93425
H         -5.34334        3.28097        0.83611
C          1.76623        2.35048       -0.01129
C          2.79246        1.42600        0.02922
Si        -3.14709       -1.85476       -0.01574
C         -3.44549       -1.19893        1.72245
H         -2.73870       -1.70152        2.40428
H         -3.16740       -0.13121        1.72275
C         -4.87776       -1.38325        2.22844
H         -5.15374       -2.44660        2.29107
H         -4.99491       -0.95885        3.23699
H         -5.61560       -0.88815        1.57930
C         -3.86873       -3.56671       -0.32599
H         -3.27027       -4.04169       -1.12217
H         -3.69162       -4.17164        0.58055
C         -5.34870       -3.58581       -0.71114
H         -5.70347       -4.61865       -0.84553
H         -5.98769       -3.12005        0.05378
H         -5.52729       -3.05717       -1.65971
C         -3.52183       -0.61609       -1.38305
H         -2.74754        0.16931       -1.37359
H         -3.42626       -1.13416       -2.35292
C         -4.89791        0.03891       -1.24344
H         -4.97888        0.60421       -0.30295
H         -5.07253        0.75245       -2.06304
H         -5.71910       -0.69269       -1.26683
N          4.15269        1.56004        0.16657
N          1.75462        3.71862       -0.15019
C          5.02603        1.23295       -0.94012
H          5.16823        2.08332       -1.63564
H          6.01361        0.93662       -0.55553
H          4.62685        0.38072       -1.50442
C          4.66702        2.52350        1.11257
H          5.61768        2.15577        1.53202
H          4.86501        3.51707        0.66825
H          3.95629        2.64965        1.94095
C          1.34542        4.54729        0.96398
H          2.17012        4.74230        1.67749
H          0.98279        5.51560        0.58774
H          0.51551        4.07713        1.50689
C          2.68246        4.32622       -1.07749
H          2.23987        5.24867       -1.48683
H          3.65142        4.59969       -0.61939
H          2.87605        3.64107       -1.91437
