81
5u_dih_dIad_auhsi.log	Energy: -1045559.6096682
N         -2.01118        1.76446       -0.03558
C         -0.72784        1.33325       -0.00735
N          0.04642        2.44278       -0.03159
C          1.53139        2.46033       -0.01704
C          2.06969        1.71859       -1.24740
C          2.04552        3.90468       -0.05851
C          2.04619        1.79989        1.26866
H          1.68807        2.20381       -2.16087
H          1.68605        0.68480       -1.25039
C          3.59972        1.71770       -1.22703
H          1.66712        4.46560        0.81173
H          1.68371        4.40842       -0.96984
C          3.57859        3.91239       -0.04442
H          1.66189        0.76808        1.33073
H          1.64786        2.34245        2.14179
C          3.57635        1.79780        1.27673
H          3.96579        1.16736       -2.10891
C          4.10673        3.16055       -1.26786
C          4.09134        1.03563        0.05270
H          3.91899        4.95903       -0.07480
C          4.08353        3.24052        1.23417
H          3.92576        1.30478        2.19814
H          3.77421        3.65512       -2.19537
H          5.20827        3.17708       -1.27468
H          3.74205       -0.00953        0.08437
H          5.19251        1.00165        0.06441
H          5.18477        3.25788        1.26022
H          3.73447        3.79339        2.12183
C         -3.21845        0.89530       -0.02178
C         -3.24673        0.05989        1.26609
C         -4.48709        1.75699       -0.06515
C         -3.21648       -0.02256       -1.25260
H         -3.24546        0.73505        2.13782
H         -2.33236       -0.55496        1.33453
C         -4.48137       -0.84405        1.27294
H         -4.49173        2.37625       -0.97723
H         -4.51314        2.43417        0.80439
C         -5.73023        0.85994       -0.05063
H         -2.30126       -0.63980       -1.25836
H         -3.19384        0.59430       -2.16626
C         -4.45142       -0.92588       -1.22990
H         -4.47323       -1.44576        2.19551
C         -5.74240        0.02093        1.22827
C         -4.44142       -1.76600        0.05062
H         -6.62162        1.50558       -0.08242
C         -5.71247       -0.06082       -1.27199
H         -4.42182       -1.58662       -2.11073
H         -5.78827        0.67380        2.11560
H         -6.64146       -0.61528        1.25370
H         -3.53880       -2.40072        0.08218
H         -5.30801       -2.44611        0.06248
H         -6.61118       -0.69802       -1.27728
H         -5.73663        0.53275       -2.20086
C         -0.74931        3.56493       -0.07502
H         -0.35613        4.57383       -0.10113
C         -2.03842        3.13963       -0.07731
H         -2.95428        3.71706       -0.10552
Au        -0.14274       -0.62008        0.06776
H          0.02388       -2.28637        0.17009
Si         1.56671       -2.82043        0.01775
C          2.53380       -2.34915        1.55991
H          2.42396       -1.26716        1.73813
H          2.04474       -2.84295        2.41754
C          4.01804       -2.71687        1.49608
H          4.53487       -2.18432        0.68304
H          4.52800       -2.44932        2.43357
H          4.17589       -3.79370        1.33674
C          2.32167       -2.28877       -1.62189
H          1.49760       -2.15224       -2.34306
H          2.77824       -1.29357       -1.49563
C          3.34612       -3.27854       -2.18253
H          3.76576       -2.90990       -3.13038
H          4.18945       -3.44026       -1.49442
H          2.89339       -4.25980       -2.38904
C          0.97656       -4.60915        0.02124
H          0.15077       -4.68856        0.74881
H          0.52552       -4.81189       -0.96596
C          2.05404       -5.64405        0.35009
H          2.45465       -5.50380        1.36541
H          1.64136       -6.66292        0.30442
H          2.90178       -5.60553       -0.34991
