87
5u_ph_ad_au_hsiet3.log	Energy: -1141792.6286342
C         -2.09625        2.67394        0.34185
C         -0.81178        3.26044        0.31960
C         -0.65968        4.64211        0.51787
C         -1.79084        5.40821        0.73996
C         -3.06281        4.82605        0.77117
C         -3.23183        3.46629        0.57538
C         -0.58865        1.05873       -0.02992
H          0.30641        5.12938        0.50419
H         -1.68052        6.48305        0.89507
H         -3.94125        5.44785        0.95340
H         -4.23178        3.05436        0.61156
N         -1.91132        1.30558        0.11409
N          0.09446        2.22088        0.08458
Au         0.23123       -0.79705       -0.39364
C          1.59011        2.27931       -0.03353
C          2.01352        1.77103       -1.42197
C          2.14969        3.69990        0.11824
C          2.21472        1.42564        1.08005
H          1.57426        2.42545       -2.19291
H          1.61155        0.75926       -1.59977
C          3.53830        1.73807       -1.53571
H          1.87977        4.10627        1.10370
H          1.73208        4.35554       -0.65984
C          3.67985        3.69109       -0.00739
H          1.81613        0.40028        1.03471
H          1.91735        1.83817        2.05847
C          3.73713        1.39461        0.93942
H          3.80910        1.33757       -2.52562
C          4.08660        3.15595       -1.37960
C          4.10969        0.83669       -0.43737
H          4.03270        4.72776        0.10855
C          4.28521        2.81385        1.08805
H          4.15256        0.74926        1.73083
H          3.69311        3.80525       -2.17887
H          5.18401        3.15740       -1.47749
H          3.71624       -0.18879       -0.54979
H          5.20500        0.76870       -0.53470
H          5.38407        2.81205        1.00865
H          4.03652        3.21462        2.08450
C         -2.94416        0.22284       -0.02615
C         -2.70511       -0.86240        1.03591
C         -4.37634        0.73760        0.17152
C         -2.86607       -0.36583       -1.44516
H         -2.80633       -0.41340        2.03792
H         -1.67432       -1.24897        0.96597
C         -3.69391       -2.01529        0.85092
H         -4.60189        1.51490       -0.57267
H         -4.48496        1.16975        1.17718
C         -5.38807       -0.40538        0.00962
H         -1.84573       -0.73052       -1.65347
H         -3.07120        0.43405       -2.17589
C         -3.85876       -1.51885       -1.60065
H         -3.47259       -2.79206        1.60062
C         -5.11659       -1.49248        1.04850
C         -3.54725       -2.59657       -0.55890
H         -6.39514        0.01326        0.16234
C         -5.27987       -0.99506       -1.39576
H         -3.75530       -1.93817       -2.61399
H         -5.23588       -1.09005        2.06798
H         -5.84563       -2.31133        0.94011
H         -2.52342       -2.98073       -0.71065
H         -4.22801       -3.45347       -0.68521
H         -6.01117       -1.80913       -1.52341
H         -5.51675       -0.23034       -2.15375
Si         1.79786       -3.07181        0.04210
H          0.72350       -2.29901       -0.93559
C          3.16023       -3.24455       -1.23567
H          2.71259       -3.72207       -2.12457
H          3.45422       -2.23102       -1.55829
C          4.38542       -4.02806       -0.76423
H          4.12263       -5.03716       -0.41061
H          5.11124       -4.15135       -1.58161
H          4.90709       -3.51325        0.05671
C          0.77599       -4.61900        0.31558
H          0.43312       -4.98716       -0.66614
H          1.47023       -5.39126        0.69323
C         -0.39745       -4.43866        1.27445
H         -0.96435       -5.37344        1.39615
H         -0.06500       -4.12570        2.27618
H         -1.10388       -3.67576        0.91185
C          2.33575       -2.29676        1.67348
H          3.03971       -1.47673        1.45896
H          1.46784       -1.83433        2.17193
C          2.98323       -3.32790        2.60409
H          3.86536       -3.80358        2.15097
H          3.31478       -2.85134        3.53871
H          2.28225       -4.12994        2.87982
