95
5u_ph_dipp_au_hsiet3.log	Energy: -1238751.3198123
C         -2.06161        2.17101        0.43480
C         -2.94336        1.08223        0.44401
C         -4.30769        1.24270        0.67764
C         -4.74746        2.54242        0.90184
C         -3.86139        3.63661        0.89248
C         -2.50034        3.47444        0.65934
C         -0.88003        0.30618        0.02200
H         -4.98649        0.38842        0.68148
H         -5.80793        2.72126        1.08975
H         -4.25535        4.63871        1.07284
H         -1.80640        4.31649        0.65033
N         -0.80177        1.64426        0.17589
N         -2.17050       -0.04243        0.18322
C          0.40466        2.40605        0.06171
C          1.10228        2.72752        1.23922
C          0.82775        2.80142       -1.21738
C          2.28392        3.46035        1.10152
C          2.01862        3.53050       -1.29847
C          2.73786        3.85595       -0.15396
H          2.85762        3.72909        1.99056
H          2.38329        3.85597       -2.27536
C         -2.66491       -1.38263        0.08707
C         -3.13359       -1.82858       -1.15992
C         -2.65485       -2.18198        1.24125
C         -3.59609       -3.14494       -1.23209
C         -3.12882       -3.49060        1.11317
C         -3.59285       -3.96645       -0.10879
H         -3.96448       -3.53473       -2.18326
H         -3.13552       -4.14812        1.98532
C          0.62870        2.25187        2.59880
H         -0.43647        1.98712        2.50787
C          0.04538        2.46658       -2.47159
H         -0.86841        1.93281       -2.16826
C         -2.12954       -1.67651        2.56993
H         -1.89983       -0.60540        2.45734
C         -3.09904       -0.94559       -2.39159
H         -2.89935        0.08579       -2.06067
Au         0.65529       -0.93024       -0.41283
C         -0.39606        3.73187       -3.20666
H         -0.98669        4.38916       -2.55138
H          0.46573        4.30978       -3.57445
H         -1.01661        3.47289       -4.07771
C          0.83596        1.52781       -3.38247
H          1.77097        1.99406       -3.73008
H          1.09734        0.59372       -2.85935
H          0.24510        1.26106       -4.27156
C          1.37965        0.98209        3.00406
H          1.25175        0.18818        2.25212
H          2.45856        1.17854        3.10826
H          1.01120        0.59903        3.96797
C          0.73083        3.33096        3.67275
H          1.77611        3.59435        3.89531
H          0.20696        4.25004        3.37129
H          0.28045        2.97534        4.61127
C         -3.17362       -1.79776        3.67852
H         -2.78996       -1.36793        4.61610
H         -4.10031       -1.26678        3.41480
H         -3.43351       -2.84822        3.88007
C         -0.82536       -2.38489        2.93819
H         -0.98448       -3.46368        3.09013
H         -0.07410       -2.26905        2.14047
H         -0.40598       -1.97229        3.86854
C         -4.43529       -0.92529       -3.13013
H         -5.25754       -0.62461       -2.46401
H         -4.39746       -0.21229       -3.96723
H         -4.68582       -1.91037       -3.55231
C         -1.95035       -1.35963       -3.31338
H         -0.98251       -1.32652       -2.78714
H         -2.09124       -2.38600       -3.68636
H         -1.88783       -0.68902       -4.18409
H          3.66205        4.43221       -0.23916
H         -3.95990       -4.99228       -0.18692
Si         3.28252       -1.54818       -0.24811
H          1.82941       -2.03676       -0.89638
C          4.23917       -2.65866       -1.42827
H          3.66050       -3.58730       -1.56959
H          4.26100       -2.16436       -2.41512
C          5.65447       -2.99757       -0.95584
H          5.64305       -3.54726       -0.00225
H          6.16897       -3.63576       -1.68968
H          6.27547       -2.10062       -0.81348
C          3.30245       -2.15623        1.53187
H          2.35385       -1.87423        2.01670
H          3.30667       -3.25986        1.50454
C          4.47957       -1.62627        2.35222
H          4.45904       -2.03039        3.37534
H          5.45145       -1.89996        1.91450
H          4.45204       -0.52889        2.43512
C          3.63456        0.28508       -0.48518
H          3.15378        0.60499       -1.42472
H          3.11966        0.84816        0.31105
C          5.12057        0.64767       -0.52073
H          5.63795        0.17198       -1.36735
H          5.24483        1.73549       -0.63262
H          5.64703        0.35236        0.39902
