63
5u_ph_tbu_au_hsiet3.log	Energy: -850778.4351011
C         -3.31272        1.02279       -0.18106
C         -3.54975       -0.36802       -0.23922
C         -4.84721       -0.85711       -0.45831
C         -5.87963        0.05171       -0.61425
C         -5.64478        1.42989       -0.55557
C         -4.37205        1.92997       -0.34038
C         -1.36399       -0.03937        0.12586
H         -5.07078       -1.91469       -0.50916
H         -6.89147       -0.32058       -0.78466
H         -6.47421        2.12851       -0.67980
H         -4.23280        3.00241       -0.29994
N         -1.94178        1.18141        0.04704
N         -2.31169       -0.98927       -0.04439
Au         0.62586       -0.41461        0.47630
C         -1.98633       -2.46238       -0.01243
C         -1.14656        2.45515        0.18083
C         -2.01357        3.70468        0.06178
H         -2.49259        3.79200       -0.92166
H         -2.76648        3.77093        0.85754
H         -1.34815        4.57121        0.17431
C         -0.49744        2.48833        1.56595
H         -1.26483        2.44328        2.35246
H          0.20318        1.65553        1.72793
H          0.06321        3.42605        1.68619
C         -0.12065        2.50751       -0.95294
H          0.58406        1.66468       -0.91848
H         -0.62505        2.49007       -1.93024
H          0.46137        3.43733       -0.88183
C         -3.21658       -3.33775       -0.23083
H         -3.96716       -3.21221        0.55992
H         -3.67388       -3.18192       -1.21626
H         -2.88023       -4.38249       -0.19286
C         -1.42152       -2.81184        1.36565
H         -0.47735       -2.28895        1.58383
H         -2.14286       -2.55709        2.15578
H         -1.21960       -3.89083        1.41654
C         -1.00386       -2.77317       -1.14341
H         -1.43480       -2.49710       -2.11700
H         -0.04659       -2.24232       -1.02915
H         -0.78718       -3.85050       -1.15429
Si         3.29607       -0.11967       -0.02530
H          2.17283       -0.87220        0.93642
C          3.45543        1.66093        0.55976
H          2.45008        2.10198        0.64967
H          3.86289        1.63504        1.58548
C          4.32464        2.53195       -0.34957
H          3.89791        2.61510       -1.36108
H          4.41236        3.55267        0.05155
H          5.34640        2.13730       -0.45418
C          2.95544       -0.34080       -1.86502
H          2.41039       -1.29087       -1.99955
H          2.26302        0.45186       -2.19557
C          4.21918       -0.34416       -2.73004
H          3.96149       -0.45451       -3.79381
H          4.79605        0.58723       -2.62979
H          4.88685       -1.17880       -2.46955
C          4.65733       -1.24457        0.62502
H          4.46655       -1.42251        1.69706
H          4.54857       -2.22715        0.13372
C          6.07225       -0.69315        0.43718
H          6.21320        0.25576        0.97674
H          6.81970       -1.39978        0.82749
H          6.31643       -0.51344       -0.62024
