65
5u_ph_ptolu_au_hsiet3.log	Energy: -992499.1687885
C          1.89508        2.76044        0.07303
C          2.99998        1.89872        0.07005
C          4.30634        2.38449        0.10960
C          4.45494        3.76590        0.13958
C          3.34455        4.63044        0.13805
C          2.04243        4.14600        0.10964
C          1.13559        0.64303        0.04375
H          5.16448        1.71134        0.12043
H          5.45952        4.19223        0.16981
H          3.51129        5.70901        0.16556
H          1.17742        4.81062        0.11858
N          0.76915        1.94287        0.06274
N          2.48338        0.60479        0.05496
C         -0.58413        2.39274        0.05851
C         -1.09745        3.03550       -1.06681
C         -1.38946        2.16857        1.17361
C         -2.42607        3.44902       -1.07003
C         -2.71845        2.58184        1.15224
C         -3.26004        3.23123        0.03541
H         -2.82709        3.94719       -1.95619
H         -3.34735        2.40530        2.02867
C          3.25786       -0.59270        0.04128
C          3.12070       -1.51794        1.07416
C          4.13911       -0.83234       -1.01208
C          3.86378       -2.69423        1.04055
C          4.88296       -2.00713       -1.02414
C          4.75999       -2.95908       -0.00242
H          3.75206       -3.41893        1.85073
H          5.56835       -2.19518       -1.85427
C         -4.68093        3.70772        0.03157
H         -5.12645        3.64187       -0.97113
H         -5.30505        3.13011        0.72737
H         -4.73426        4.76399        0.34261
C          5.58760       -4.20859       -0.01319
H          5.75395       -4.57301       -1.03679
H          6.57894       -4.01912        0.43060
H          5.11563       -5.01219        0.56855
Au        -0.14724       -0.91532       -0.08660
H          4.22902       -0.10829       -1.82480
H          2.44213       -1.31012        1.90429
H         -0.96945        1.67669        2.05360
H         -0.46042        3.19741       -1.93903
Si        -2.68933       -1.82096       -0.09384
H         -1.09783       -2.28817       -0.26863
C         -3.25310       -3.53051       -0.64477
H         -2.63121       -3.82479       -1.50749
H         -2.99850       -4.23990        0.16209
C         -4.73355       -3.63709       -1.01437
H         -4.98314       -2.99983       -1.87610
H         -4.99159       -4.67001       -1.29181
H         -5.39587       -3.34888       -0.18448
C         -3.19965       -0.43876       -1.26607
H         -2.50441        0.40959       -1.15150
H         -3.07070       -0.80372       -2.29966
C         -4.63170        0.04949       -1.03408
H         -4.88880        0.84725       -1.74711
H         -5.37655       -0.75054       -1.15676
H         -4.75517        0.46869       -0.02412
C         -2.99414       -1.46210        1.72727
H         -2.23747       -2.01261        2.31181
H         -2.78899       -0.39163        1.89701
C         -4.39721       -1.82975        2.21555
H         -4.59320       -2.90755        2.11231
H         -4.52000       -1.57950        3.27996
H         -5.18487       -1.29653        1.66227
