77
5u_ph_mes_au_hsiet3.log	Energy: -1091011.6975961
C          1.60805        2.74356        0.06556
C          2.75992        1.94531        0.06643
C          4.03779        2.49937        0.10898
C          4.10966        3.88730        0.15068
C          2.95264        4.68917        0.15014
C          1.67813        4.13475        0.10779
C          0.97459        0.59108       -0.00969
H          4.92883        1.86940        0.10925
H          5.08857        4.36946        0.18488
H          3.06040        5.77507        0.18409
H          0.77638        4.74932        0.10744
N          0.53153        1.86494        0.01749
N          2.31943        0.62681        0.01951
C         -0.85155        2.22853       -0.00250
C         -1.46903        2.45223       -1.24085
C         -1.53781        2.32842        1.21517
C         -2.82634        2.77882       -1.23481
C         -2.89434        2.65668        1.16556
C         -3.55524        2.88682       -0.04567
H         -3.32951        2.95437       -2.18951
H         -3.45037        2.73905        2.10352
C          3.16139       -0.53042        0.00475
C          3.53277       -1.10431        1.22783
C          3.57958       -1.03924       -1.23197
C          4.35290       -2.23258        1.18544
C          4.39867       -2.16898       -1.21805
C          4.79830       -2.77744       -0.02351
H          4.65433       -2.69955        2.12692
H          4.73617       -2.58581       -2.17076
C         -0.69855        2.31676       -2.52011
H          0.19107        2.96550       -2.52870
H         -0.34189        1.28327       -2.66339
H         -1.32020        2.58209       -3.38459
C         -0.84090        2.06322        2.51599
H         -0.52942        1.00811        2.59184
H          0.06879        2.67419        2.62143
H         -1.49821        2.28215        3.36706
C         -5.00446        3.27104       -0.06760
H         -5.49866        2.93440       -0.98975
H         -5.54798        2.85286        0.79139
H         -5.11395        4.36704       -0.02004
C          3.14490       -0.39828       -2.51652
H          2.05472       -0.48483       -2.65610
H          3.38871        0.67540       -2.53883
H          3.63129       -0.87420       -3.37735
C          3.04938       -0.53123        2.52696
H          3.30143        0.53682        2.61959
H          1.95355       -0.61293        2.61560
H          3.49495       -1.05944        3.37936
C          5.71020       -3.96758       -0.03779
H          5.54745       -4.61254        0.83692
H          5.57240       -4.57192       -0.94522
H          6.76456       -3.64582       -0.01584
Au        -0.21603       -1.03431       -0.07986
Si        -2.71388       -2.02829       -0.01340
H         -1.10831       -2.46138       -0.15551
C         -3.25893       -0.99404       -1.48770
H         -2.56719       -0.14189       -1.59502
H         -3.14114       -1.60610       -2.39853
C         -4.68913       -0.46454       -1.36169
H         -4.79478        0.19867       -0.49014
H         -4.96608        0.12321       -2.25001
H         -5.43039       -1.27129       -1.26139
C         -3.03764       -1.23140        1.66002
H         -2.27395       -1.59674        2.36762
H         -2.86281       -0.14726        1.55038
C         -4.43638       -1.49747        2.22164
H         -4.57419       -0.98444        3.18535
H         -5.23018       -1.14234        1.54751
H         -4.60748       -2.56989        2.39875
C         -3.22677       -3.83599       -0.11941
H         -2.59600       -4.32087       -0.88391
H         -2.95905       -4.31645        0.83785
C         -4.70353       -4.06258       -0.44819
H         -4.96570       -3.65594       -1.43669
H         -4.93725       -5.13748       -0.46911
H         -5.37434       -3.59887        0.29029
