71
6s_cy4_ptolu_au_hsiet3.log	Energy: -994738.2835865
C          1.27747       -0.72629       -0.31527
C          3.64599       -1.37087       -0.49087
H          4.51084       -1.00521        0.08109
H          3.95463       -1.42113       -1.54981
C          1.90044       -3.07308       -0.69268
H          2.06352       -3.22142       -1.77471
H          1.47363       -4.00201       -0.29032
C          2.94132        0.98871       -0.27648
C          2.75404        1.81676       -1.38276
C          3.11384        3.15998       -1.30807
H          2.95923        3.80387       -2.17740
C          3.67532        3.69713       -0.14355
C          3.86041        2.84377        0.95353
H          4.28890        3.24140        1.87698
C          3.50032        1.50196        0.89367
C          4.09622        5.13444       -0.07770
H          3.93346        5.55693        0.92405
H          3.55121        5.75019       -0.80627
H          5.17119        5.23328       -0.30176
C         -0.45381       -2.38415       -0.38489
C         -1.10015       -2.38548        0.85057
C         -2.43477       -2.77463        0.93309
H         -2.93300       -2.77401        1.90569
C         -3.14470       -3.17839       -0.20413
C         -2.46790       -3.19185       -1.43205
H         -2.99758       -3.50873       -2.33410
C         -1.13677       -2.79815       -1.52846
C         -4.59254       -3.55880       -0.12234
H         -4.80650       -4.45877       -0.71704
H         -5.22973       -2.75108       -0.51932
H         -4.90396       -3.74966        0.91355
N          2.56756       -0.39260       -0.34397
N          0.92210       -2.00292       -0.47241
Au        -0.12698        0.74164       -0.05208
Si        -2.69136        1.58000        0.22758
H         -1.11704        2.08807        0.14680
C         -2.98022        0.82426        1.92628
H         -2.19614        0.07206        2.11017
H         -2.82072        1.61824        2.67638
C         -4.35950        0.18493        2.09511
H         -4.50527       -0.64851        1.39120
H         -4.48385       -0.21985        3.11100
H         -5.17725        0.90254        1.93100
C         -3.17400        0.49632       -1.23159
H         -2.57321        0.81656       -2.10018
H         -2.85390       -0.53464       -1.00936
C         -4.66146        0.53128       -1.59008
H         -4.87550       -0.15337       -2.42494
H         -5.30180        0.22863       -0.74799
H         -4.98387        1.53497       -1.90529
C         -3.31089        3.35333        0.08807
H         -2.62818        3.99805        0.66744
H         -3.19684        3.66602       -0.96459
C         -4.74898        3.56306        0.56553
H         -4.85953        3.32757        1.63500
H         -5.05615        4.61128        0.43305
H         -5.46964        2.94153        0.01338
C          3.19463       -2.72727        0.00758
C          3.19502       -2.82134        1.55433
C          4.32579       -3.77717       -0.02363
C          4.55810       -3.53641        1.48111
H          2.39307       -3.48002        1.92067
H          3.13922       -1.87210        2.11004
H          3.93559       -4.78449       -0.23317
H          5.16159       -3.58299       -0.71309
H          4.68750       -4.42547        2.11266
H          5.40263       -2.85902        1.67391
H          3.63785        0.85191        1.76111
H          2.32581        1.40518       -2.29968
H         -0.62779       -2.80113       -2.49481
H         -0.54893       -2.08783        1.74562
