96
6s_cypentane_dIad_auhsi.log	Energy: -1168669.2446768
C          1.04387        0.72863       -0.24677
C          1.73555        3.01912       -0.43083
H          1.30710        4.00094       -0.22835
H          2.18640        3.05999       -1.43856
C          3.38799        1.37267        0.15380
H          4.06527        1.53379       -0.69808
H          3.98395        0.94280        0.97305
N          0.68381        2.00965       -0.38874
N          2.34835        0.40056       -0.20729
C          2.80443        2.68828        0.59625
C          2.24036        2.69681        2.02485
C          3.85134        3.80581        0.66574
C          2.12242        4.18141        2.37889
H          2.97226        2.20267        2.68509
H          1.29294        2.14643        2.12912
C          3.23225        4.88807        1.56705
H          4.13435        4.17750       -0.33171
H          4.76805        3.39979        1.12391
H          1.12865        4.56559        2.09691
H          2.21455        4.35189        3.46077
H          2.81792        5.71314        0.96841
H          3.99343        5.34111        2.21747
C         -0.74332        2.43384       -0.61004
C         -1.33570        1.64968       -1.79271
C         -1.59221        2.23769        0.65364
C         -0.82776        3.92846       -0.97800
H         -1.27383        0.56760       -1.59475
H         -0.72181        1.83872       -2.68904
C         -2.79200        2.04636       -2.03701
H         -1.16760        2.84104        1.47363
H         -1.54400        1.18387        0.98122
C         -3.04781        2.63329        0.38725
H         -0.21091        4.14044       -1.86574
H         -0.45331        4.55096       -0.15044
C         -2.27994        4.34263       -1.24808
H         -3.19256        1.43602       -2.86274
C         -3.60665        1.79508       -0.76591
C         -2.85460        3.52759       -2.40522
H         -3.63721        2.45259        1.30120
C         -3.11273        4.11455        0.01380
H         -2.28360        5.41291       -1.50748
H         -3.57583        0.72481       -0.50742
H         -4.66515        2.04860       -0.93808
H         -2.28327        3.71510       -3.32924
H         -3.89467        3.83196       -2.60420
H         -4.15714        4.41965       -0.15947
H         -2.73169        4.73410        0.84245
C          2.83287       -1.01548       -0.36796
C          4.32630       -1.02928       -0.76507
C          2.69180       -1.79275        0.94824
C          2.09277       -1.72742       -1.51413
H          4.94434       -0.54258        0.00131
H          4.46603       -0.47355       -1.70667
C          4.83255       -2.46845       -0.92819
H          1.63645       -1.78813        1.27485
H          3.26797       -1.28176        1.73842
C          3.17752       -3.23330        0.77315
H          2.25515       -1.16170       -2.44684
H          1.00391       -1.73717       -1.34413
C          2.57263       -3.17291       -1.65833
H          5.90070       -2.42394       -1.19297
C          4.65902       -3.22264        0.39134
C          4.05328       -3.17948       -2.03138
H          3.04030       -3.77434        1.72301
C          2.36393       -3.91186       -0.33287
H          1.98347       -3.65917       -2.45236
H          5.25270       -2.74482        1.18839
H          5.03444       -4.25355        0.28940
H          4.20404       -2.67218       -2.99849
H          4.41718       -4.21272       -2.15075
H          2.67100       -4.96495       -0.43608
H          1.29221       -3.91817       -0.06557
Au        -0.33112       -0.74958        0.25167
H         -1.10270       -2.08965        0.90841
Si        -2.69663       -2.24765        0.62508
C         -2.67209       -4.05715        1.14928
H         -1.77733       -4.52009        0.69807
H         -2.50626       -4.08753        2.24030
C         -3.91780       -4.85795        0.76687
H         -4.05490       -4.90026       -0.32434
H         -3.83890       -5.89625        1.12235
H         -4.83670       -4.43571        1.20036
C         -3.16098       -2.03789       -1.18880
H         -2.67905       -1.13716       -1.60037
H         -2.71723       -2.88909       -1.73419
C         -4.67136       -1.96985       -1.42759
H         -4.89459       -1.90889       -2.50326
H         -5.19808       -2.85261       -1.03600
H         -5.11650       -1.08218       -0.95285
C         -3.55509       -1.12414        1.86289
H         -2.89428       -1.06561        2.74519
H         -3.59628       -0.10180        1.45435
C         -4.94921       -1.59148        2.28574
H         -4.91804       -2.58083        2.76635
H         -5.39257       -0.89388        3.01188
H         -5.64255       -1.65886        1.43419
