80
6s_cy3_mes_au_hsiet3.log	Energy: -1068622.0637708
C          1.11192        0.98020        0.17635
C          3.32958        2.02980        0.32871
H          4.25321        1.80048       -0.22059
H          3.60776        2.17532        1.38764
C          1.28252        3.42511        0.36951
H          1.34613        3.72042        1.43190
H          0.71727        4.21030       -0.15165
C          3.03436       -0.43323        0.18647
C          3.23271       -1.11711        1.39602
C          3.82272       -2.38097        1.34148
H          3.98123       -2.92773        2.27504
C          4.21408       -2.96386        0.13234
C          3.99012       -2.25209       -1.05008
H          4.27888       -2.69765       -2.00596
C          3.40441       -0.98509       -1.04997
C          2.79084       -0.52771        2.70328
H          3.22977        0.46587        2.88072
H          3.07980       -1.17367        3.54206
H          1.69552       -0.40700        2.73503
C          4.88202       -4.30614        0.10691
H          4.68163       -4.84028       -0.83241
H          4.55187       -4.93852        0.94292
H          5.97558       -4.19499        0.19309
C          3.15368       -0.24853       -2.33201
H          2.08754        0.00322       -2.44987
H          3.45798       -0.85177       -3.19679
H          3.71062        0.70037       -2.37561
C         -0.90564        2.26637        0.27497
C         -1.59275        2.42681       -0.93731
C         -2.98467        2.54131       -0.89145
H         -3.53415        2.65780       -1.82953
C         -3.68959        2.51120        0.31428
C         -2.96602        2.35030        1.50090
H         -3.50148        2.31663        2.45397
C         -1.57620        2.22197        1.50771
C         -0.85863        2.44549       -2.24451
H         -0.16550        3.29843       -2.31159
H         -1.55758        2.51880       -3.08758
H         -0.25187        1.53553       -2.37883
C         -5.18213        2.65422        0.34540
H         -5.47180        3.64184        0.73908
H         -5.64321        1.90001        1.00095
H         -5.62099        2.55490       -0.65666
C         -0.83154        1.98528        2.78782
H         -0.39372        0.97328        2.80465
H         -1.49945        2.07533        3.65398
H         -0.00323        2.69551        2.92770
N          2.43799        0.87360        0.21466
N          0.52655        2.17431        0.25622
Au        -0.00149       -0.72279       -0.02514
Si        -2.35985       -2.03680       -0.25040
H         -0.71650       -2.23549       -0.21487
C         -2.87660       -1.08577       -1.78995
H         -2.28344       -0.15855       -1.84329
H         -2.58913       -1.68767       -2.66949
C         -4.36576       -0.73747       -1.82731
H         -4.64256       -0.07718       -0.99187
H         -4.62054       -0.20785       -2.75791
H         -5.00847       -1.62895       -1.77564
C         -2.96709       -1.32335        1.37874
H         -2.26143       -1.64108        2.16572
H         -2.87941       -0.22587        1.31570
C         -4.39174       -1.72881        1.76223
H         -4.69116       -1.25438        2.70915
H         -5.12843       -1.42999        1.00153
H         -4.48438       -2.81624        1.90270
C         -2.61043       -3.89722       -0.40629
H         -1.84041       -4.28576       -1.09448
H         -2.38851       -4.34823        0.57665
C         -3.99853       -4.31427       -0.89525
H         -4.20284       -3.93374       -1.90759
H         -4.08463       -5.41033       -0.93909
H         -4.80193       -3.95174       -0.23671
C          2.65347        3.25393       -0.22088
C          2.89150        3.64583       -1.65348
C          3.47127        4.46488       -0.53948
H          2.05567        4.06407       -2.22000
H          3.57039        3.03186       -2.25051
H          4.54909        4.41315       -0.36354
H          3.03350        5.44532       -0.33346
