89
6s_cyhexane_dImes_auhsi.log	Energy: -1142522.0604878
C          1.09412       -0.03776        0.22773
C          2.48902       -1.97874        0.78711
H          2.47349       -3.00272        0.39198
H          2.54225       -2.06088        1.88663
C          3.49135        0.26110        0.67073
H          3.65844        0.38196        1.75559
H          4.22331        0.90575        0.16278
C          0.05221       -2.18438        0.39163
C         -0.63822       -2.41617        1.59114
C         -1.76386       -3.24467        1.55228
H         -2.31627       -3.42374        2.47873
C         -2.20082       -3.84468        0.37016
C         -1.48293       -3.59102       -0.80366
H         -1.81459       -4.04403       -1.74228
C         -0.36061       -2.76232       -0.82099
C         -0.19773       -1.79486        2.88404
H          0.67120       -2.32288        3.30951
H         -0.99942       -1.84035        3.63298
H          0.09111       -0.74101        2.75647
C         -3.41027       -4.73112        0.34576
H         -4.12769       -4.40410       -0.42291
H         -3.92703       -4.74080        1.31488
H         -3.13230       -5.76903        0.10326
C          0.35372       -2.46994       -2.10561
H          0.36647       -1.38847       -2.31707
H         -0.13553       -2.97443       -2.94857
H          1.40129       -2.80436       -2.07775
C          1.98079        2.17717        0.23535
C          2.16758        2.80659       -1.00567
C          2.00424        4.19120       -1.06702
H          2.14110        4.69365       -2.02851
C          1.67064        4.94913        0.05962
C          1.48317        4.28247        1.27345
H          1.21159        4.85723        2.16315
C          1.63202        2.89891        1.38791
C          2.50120        2.01613       -2.23521
H          3.46697        1.49667       -2.14119
H          2.55862        2.66876       -3.11565
H          1.74076        1.24397       -2.43371
C          1.54448        6.44073       -0.02804
H          1.17625        6.75801       -1.01387
H          2.52530        6.92089        0.12378
H          0.86483        6.83587        0.73975
C          1.37150        2.20886        2.69506
H          0.41271        1.66378        2.66651
H          1.31324        2.93437        3.51657
H          2.15159        1.47619        2.94807
N          1.22159       -1.35043        0.41224
N          2.15705        0.75379        0.33444
C          3.69388       -1.19553        0.26616
C          3.82823       -1.32116       -1.26165
C          4.97941       -1.70538        0.93573
C          4.23990       -2.71586       -1.72103
H          4.60066       -0.60377       -1.58877
H          2.89425       -1.00945       -1.75392
C          5.38755       -3.10239        0.48153
H          5.79118       -0.99806        0.68943
H          4.86345       -1.67096        2.03239
C          5.51980       -3.17618       -1.03462
H          4.36466       -2.71639       -2.81512
H          3.43457       -3.44307       -1.51299
H          6.33647       -3.37991        0.96556
H          4.64719       -3.84560        0.82681
H          5.77928       -4.19855       -1.34953
H          6.35602       -2.53075       -1.35751
Au        -0.72390        0.80062       -0.18235
H         -2.10881        1.68928       -0.54375
Si        -3.42409        0.70560       -0.33547
C         -4.59166        2.13709       -0.70390
H         -4.20135        3.03182       -0.18939
H         -4.52087        2.35756       -1.78331
C         -6.04518        1.89618       -0.29279
H         -6.14057        1.75023        0.79395
H         -6.67497        2.75827       -0.55898
H         -6.47927        1.01301       -0.78496
C         -3.55934        0.08634        1.43836
H         -2.59000       -0.34309        1.73987
H         -3.72316        0.96468        2.08671
C         -4.65976       -0.95716        1.64115
H         -4.73321       -1.24673        2.70051
H         -5.65123       -0.59017        1.33647
H         -4.45078       -1.87332        1.06888
C         -3.40863       -0.62674       -1.65840
H         -2.88267       -0.21388       -2.53653
H         -2.77980       -1.45381       -1.28939
C         -4.78889       -1.14150       -2.07121
H         -5.40895       -0.34546       -2.51025
H         -4.69928       -1.93496       -2.82878
H         -5.34695       -1.56410       -1.22223
