83
6s_cy4_mes_au_hsiet3.log	Energy: -1093249.1845467
C         -1.13934       -0.71021        0.19980
C         -3.48848       -1.40356        0.38657
H         -4.36667       -1.05674       -0.17701
H         -3.78999       -1.45702        1.44764
C         -1.69412       -3.07445        0.54681
H         -1.82063       -3.24992        1.62969
H         -1.25324       -3.98523        0.11715
C         -2.82330        0.98048        0.23590
C         -2.83422        1.67233        1.45813
C         -3.22835        3.01131        1.44907
H         -3.24056        3.56213        2.39358
C         -3.60585        3.66364        0.27190
C         -3.57044        2.94197       -0.92481
H         -3.84865        3.43971       -1.85781
C         -3.18643        1.60067       -0.96997
C         -2.39188        1.01389        2.73236
H         -2.85494        0.02670        2.87726
H         -2.64448        1.63395        3.60200
H         -1.29913        0.86262        2.73925
C         -4.06266        5.09159        0.29575
H         -3.83907        5.60379       -0.65055
H         -3.59185        5.65380        1.11430
H         -5.15348        5.14553        0.44687
C         -3.14628        0.85890       -2.27244
H         -2.18127        0.34956       -2.41893
H         -3.30205        1.54305       -3.11636
H         -3.93234        0.08841       -2.32711
C          0.65248       -2.28930        0.34418
C          1.31831       -2.48855       -0.87485
C          2.67934       -2.80318       -0.83490
H          3.21136       -2.95480       -1.77794
C          3.37417       -2.93252        0.36978
C          2.67132       -2.73550        1.56298
H          3.19964       -2.82593        2.51641
C          1.31381       -2.41076        1.57756
C          0.59901       -2.35593       -2.18379
H         -0.22771       -3.07768       -2.26702
H          1.28106       -2.52955       -3.02603
H          0.15540       -1.35424       -2.30388
C          4.83793       -3.25841        0.39353
H          5.02696       -4.19218        0.94536
H          5.41112       -2.46571        0.90022
H          5.24434       -3.37698       -0.61984
C          0.59627       -2.18676        2.87569
H         -0.08571       -1.32527        2.82139
H          1.30964       -2.00611        3.69042
H         -0.00541       -3.06489        3.16151
N         -2.43417       -0.40325        0.23123
N         -0.74856       -1.97699        0.33228
Au         0.22073        0.79540       -0.05274
Si         2.75122        1.72748       -0.31995
H          1.15826        2.17630       -0.27744
C          3.09931        0.76358       -1.89789
H          2.36229       -0.05133       -1.97875
H          2.90824        1.43698       -2.75146
C          4.51223        0.18123       -1.96597
H          4.68350       -0.54698       -1.15904
H          4.67368       -0.34527       -2.91893
H          5.29069        0.95488       -1.88787
C          3.25324        0.87152        1.27590
H          2.61925        1.27486        2.08443
H          2.98478       -0.19395        1.18436
C          4.72970        1.02437        1.64744
H          4.95810        0.47206        2.57173
H          5.39861        0.63805        0.86386
H          5.00127        2.07593        1.82416
C          3.28799        3.53035       -0.41638
H          2.58813        4.05658       -1.08779
H          3.13850        3.97745        0.58192
C          4.72445        3.74306       -0.89757
H          4.86803        3.37101       -1.92342
H          4.97994        4.81329       -0.90428
H          5.46149        3.23762       -0.25575
C         -3.02846       -2.76685       -0.09650
C         -3.13698       -2.93885       -1.63308
C         -4.14179       -3.82727        0.05299
C         -4.50286       -3.61929       -1.43019
H         -2.38358       -3.64933       -2.00440
H         -3.08814       -2.03121       -2.25098
H         -3.71954       -4.82600        0.24196
H         -4.91648       -3.63198        0.81047
H         -4.70938       -4.51712       -2.02797
H         -5.34456       -2.92353       -1.56188
