98
6s_cy3_dipp_au_hsiet3.log	Energy: -1216361.9816821
C          1.11691        0.52199        0.24181
C          3.52895        0.81664        0.61785
H          4.37839        0.36560        0.08643
H          3.75268        0.76203        1.69894
C          2.00462        2.76421        0.72641
H          2.06920        2.92056        1.81810
H          1.74347        3.73069        0.27293
C          2.52825       -1.40505        0.16894
C          2.41831       -2.23508        1.29886
C          2.62256       -3.60576        1.11535
H          2.54306       -4.28027        1.97102
C          2.92609       -4.12363       -0.13914
C          3.02406       -3.28032       -1.24123
H          3.25553       -3.70111       -2.22253
C          2.82758       -1.90307       -1.11244
C          2.06345       -1.69534        2.67031
H          1.96632       -0.60156        2.58651
C          2.91101       -1.00038       -2.32683
H          2.70991        0.02805       -1.99132
C         -0.41701        2.34446        0.37739
C         -0.90969        2.79612       -0.86036
C         -2.22142        3.27831       -0.89665
H         -2.63763        3.63487       -1.84193
C         -3.00398        3.31052        0.25348
C         -2.48423        2.87658        1.46917
H         -3.10264        2.92905        2.36828
C         -1.17499        2.39360        1.56146
C         -0.06183        2.77549       -2.11729
H          0.92451        2.37317       -1.84357
C         -0.58932        2.00870        2.90668
H          0.38506        1.53041        2.72057
N          2.34204        0.01004        0.33004
N          0.91931        1.82497        0.43493
Au        -0.43123       -0.73163       -0.22787
Si        -3.06316       -1.49764       -0.51199
H         -1.49313       -1.94590       -0.70610
C         -3.49608       -0.06843       -1.64892
H         -2.75875        0.73296       -1.48398
H         -3.36128       -0.40147       -2.69247
C         -4.90217        0.49142       -1.42697
H         -5.01796        0.89142       -0.40804
H         -5.10617        1.31926       -2.12309
H         -5.68830       -0.26288       -1.58037
C         -3.43645       -1.17824        1.30169
H         -2.71391       -1.75174        1.90674
H         -3.22257       -0.11436        1.49851
C         -4.86323       -1.53162        1.72628
H         -5.02474       -1.29485        2.78874
H         -5.61889       -0.97623        1.15077
H         -5.07220       -2.60428        1.59772
C         -3.64951       -3.17675       -1.13188
H         -3.00475       -3.46592       -1.97940
H         -3.44768       -3.91646       -0.33747
C         -5.11747       -3.22262       -1.55896
H         -5.31537       -2.54331       -2.40198
H         -5.39780       -4.23478       -1.88711
H         -5.80058       -2.94515       -0.74240
C          3.29963        2.23495        0.18005
C          3.74754        2.66099       -1.19345
C          4.46599        3.15706        0.02575
H          3.12003        3.36696       -1.74369
H          4.25011        1.92216       -1.82295
H          5.46179        2.75941        0.23884
H          4.33206        4.20213        0.31747
C         -0.34177        3.26196        3.75036
H          0.15444        3.00183        4.69780
H          0.28878        3.99210        3.22097
H         -1.28965        3.76547        3.99610
C         -1.44132        0.99366        3.66305
H         -2.44257        1.38845        3.89463
H         -1.56621        0.06683        3.08720
H         -0.96426        0.73531        4.62046
C          0.15269        4.18739       -2.66305
H          0.58394        4.85543       -1.90170
H          0.83378        4.16834       -3.52764
H         -0.79313        4.63994       -2.99871
C         -0.63782        1.84301       -3.18164
H         -0.72182        0.81250       -2.80372
H         -1.63845        2.16623       -3.50831
H          0.01233        1.82433       -4.06950
C          4.30726       -1.01745       -2.94850
H          4.36698       -0.30801       -3.78813
H          5.08199       -0.74590       -2.21493
H          4.56266       -2.01414       -3.34001
C          1.83356       -1.35414       -3.35206
H          1.85282       -0.64737       -4.19569
H          1.98052       -2.36588       -3.76045
H          0.82969       -1.31917       -2.89979
C          3.16314       -1.98085        3.69246
H          2.91433       -1.52994        4.66514
H          3.29305       -3.06204        3.85345
H          4.13267       -1.57635        3.36484
C          0.70841       -2.22969        3.13519
H          0.72876       -3.32321        3.26086
H          0.42506       -1.78613        4.10169
H         -0.08092       -1.99135        2.40415
H         -4.02691        3.69066        0.20419
H          3.08619       -5.19735       -0.25993
