99
6s_cyhexane_dIad_auh.log	Energy: -1193300.4164781
C         -0.52941        0.96193       -0.46459
C         -2.63745        2.08682       -0.26423
H         -3.67455        1.82674       -0.05955
H         -2.63321        2.70855       -1.17765
C         -0.65608        3.26170        0.41136
H         -0.72785        4.11057       -0.28469
H         -0.05602        3.59347        1.27142
N         -1.86492        0.87136       -0.48939
N          0.05370        2.14993       -0.23273
C         -2.04003        2.88088        0.88854
C         -1.97722        2.05748        2.18644
C         -2.85493        4.15917        1.13300
C         -3.35110        1.77470        2.78285
H         -1.38641        2.63670        2.91750
H         -1.42433        1.11825        2.02338
C         -4.22722        3.89357        1.74393
H         -2.27613        4.80846        1.81373
H         -2.95651        4.71798        0.18712
C         -4.12674        3.06512        3.01896
H         -3.23587        1.21618        3.72500
H         -3.92795        1.11264        2.11210
H         -4.72802        4.85265        1.94685
H         -4.87144        3.37159        1.01437
H         -5.13057        2.84635        3.41473
H         -3.61034        3.65659        3.79589
C          1.52161        2.38261       -0.47370
C          1.94556        1.83008       -1.84560
C          1.83424        3.89517       -0.51507
C          2.36227        1.76436        0.65205
H          1.34622        2.32443       -2.62821
H          1.72997        0.75159       -1.92389
C          3.44183        2.04434       -2.08173
H          1.56737        4.38102        0.43315
H          1.24517        4.37660       -1.31219
C          3.32941        4.13601       -0.75935
H          2.15099        0.68247        0.72111
H          2.06432        2.20919        1.61707
C          3.85356        1.98772        0.39027
H          3.71158        1.59279       -3.04969
C          3.74435        3.54076       -2.10232
C          4.23259        1.36822       -0.95828
H          3.50089        5.22393       -0.76258
C          4.14104        3.49004        0.36506
H          4.43405        1.51029        1.19680
H          3.19713        4.02897       -2.92543
H          4.81734        3.71508       -2.28259
H          4.02536        0.28465       -0.94974
H          5.31395        1.48331       -1.13545
H          5.21643        3.67033        0.20689
H          3.88087        3.94334        1.33614
C         -2.58676       -0.41767       -0.78432
C         -2.38195       -1.43098        0.35271
C         -4.10743       -0.19967       -0.90983
C         -2.11624       -0.98870       -2.13398
H         -2.77969       -1.00561        1.28931
H         -1.30516       -1.60341        0.51786
C         -3.06931       -2.75750        0.02411
H         -4.32617        0.54106       -1.69555
H         -4.52201        0.17981        0.03722
C         -4.82233       -1.51958       -1.23316
H         -1.02279       -1.13739       -2.13708
H         -2.33089       -0.25104       -2.92506
C         -2.80196       -2.32241       -2.43028
H         -2.87170       -3.47180        0.84003
C         -4.57458       -2.52410       -0.10741
C         -2.51327       -3.30701       -1.29296
H         -5.90025       -1.30822       -1.31277
C         -4.30741       -2.09224       -2.55212
H         -2.40524       -2.72120       -3.37746
H         -4.98487       -2.14610        0.84379
H         -5.09278       -3.47180       -0.32488
H         -1.42483       -3.47437       -1.20554
H         -2.96759       -4.28562       -1.51607
H         -4.82581       -3.03670       -2.78302
H         -4.51903       -1.39923       -3.38294
Au         0.64070       -0.76154       -0.54544
H          1.53961       -2.15992       -0.73766
Si         2.00100       -2.71615        0.75761
C          3.79963       -2.17125        0.80662
H          4.13029       -2.03419       -0.23679
H          3.84075       -1.16852        1.26636
C          4.74479       -3.13636        1.52456
H          4.76487       -4.12183        1.03519
H          5.77560       -2.75175        1.51886
H          4.46287       -3.29511        2.57587
C          1.73013       -4.50827        0.25231
H          0.72138       -4.56978       -0.19247
H          2.43119       -4.73593       -0.56957
C          1.86503       -5.53187        1.37986
H          1.70761       -6.55330        1.00246
H          2.86062       -5.50886        1.84759
H          1.12176       -5.36278        2.17386
C          1.01102       -2.24726        2.29773
H          0.76565       -1.17256        2.27911
H          0.04541       -2.77943        2.25168
C          1.75238       -2.57995        3.59603
H          2.68268       -1.99985        3.69091
H          1.12956       -2.34052        4.47101
H          2.01741       -3.64516        3.66745
