104
6s_cypentane_dIdipp_auhsi.log	Energy: -1265631.3632427
C         -1.01614        0.10446        0.21591
C         -2.44266        2.01820        0.77608
H         -2.39717        3.07043        0.46258
H         -2.58928        2.01790        1.87072
C         -3.44845       -0.19472        0.42325
H         -3.70346       -0.38547        1.48070
H         -4.13639       -0.79548       -0.18892
C          0.03087        2.20433        0.66152
C          0.68294        2.15633        1.90761
C          1.85631        2.90452        2.05392
H          2.38613        2.89155        3.00915
C          2.35110        3.67360        1.00764
C          1.66320        3.73880       -0.20100
H          2.04508        4.37399       -1.00202
C          0.48161        3.01917       -0.39584
C          0.12634        1.38572        3.08992
H         -0.71457        0.77337        2.72941
C         -0.29137        3.11439       -1.69712
H         -1.34416        2.91958       -1.44907
C         -1.93255       -2.08544       -0.08050
C         -1.91920       -2.54666       -1.41056
C         -1.80078       -3.92336       -1.61862
H         -1.78586       -4.31182       -2.63956
C         -1.70385       -4.80542       -0.54808
C         -1.70930       -4.32373        0.75605
H         -1.62315       -5.02532        1.58886
C         -1.81981       -2.95542        1.01942
C         -2.00954       -1.60780       -2.59571
H         -2.06661       -0.58339       -2.20300
C         -1.79500       -2.45859        2.45098
H         -1.80611       -1.35759        2.42490
N         -1.15060        1.40686        0.47001
N         -2.09133       -0.67712        0.16656
C         -3.59131        1.27982        0.09334
C         -3.64698        1.56820       -1.41580
C         -4.93618        1.85011        0.56047
C         -4.28343        2.95881       -1.53182
H         -4.29568        0.81122       -1.88482
H         -2.66879        1.49247       -1.91245
C         -5.12409        3.14183       -0.24702
H         -4.97815        2.00321        1.65023
H         -5.72562        1.12241        0.30956
H         -3.51073        3.74016       -1.60764
H         -4.88793        3.04488       -2.44560
H         -4.77539        4.01372        0.32698
H         -6.18528        3.32697       -0.46380
C         -0.50534       -2.87502        3.15734
H         -0.46170       -2.44578        4.16958
H         -0.43493       -3.96857        3.25955
H          0.38042       -2.53268        2.60053
C         -3.03174       -2.91811        3.22368
H         -3.02813       -2.50697        4.24472
H         -3.96146       -2.59958        2.72839
H         -3.06360       -4.01539        3.30735
C         -0.75417       -1.68738       -3.46425
H          0.15229       -1.49292       -2.86853
H         -0.64214       -2.68055       -3.92576
H         -0.79601       -0.94520       -4.27591
C         -3.27693       -1.85425       -3.41364
H         -4.18083       -1.77918       -2.79015
H         -3.36182       -1.11854       -4.22802
H         -3.27407       -2.85607       -3.87016
C          0.13370        2.04042       -2.69817
H          1.16755        2.20693       -3.03628
H          0.08304        1.03175       -2.26118
H         -0.51658        2.06112       -3.58644
C         -0.23727        4.50222       -2.32808
H         -0.93326        4.55604       -3.17856
H         -0.51526        5.28759       -1.60955
H          0.76388        4.73977       -2.71931
C          1.14281        0.42512        3.70126
H          0.69183       -0.12582        4.53971
H          1.49180       -0.31245        2.96362
H          2.02361        0.95528        4.09446
C         -0.42384        2.35385        4.14011
H          0.37934        2.97474        4.56633
H         -1.17268        3.03617        3.71045
H         -0.89521        1.80237        4.96794
H          3.27007        4.24866        1.14213
H         -1.61929       -5.87876       -0.73205
Au         0.82318       -0.75110       -0.05673
H          2.20247       -1.69493       -0.25066
Si         3.53654       -0.75233       -0.46735
C          4.57347       -2.26193       -0.90736
H          4.25878       -3.09079       -0.25050
H          4.29776       -2.57098       -1.93087
C          6.08419       -2.05343       -0.78923
H          6.38041       -1.81524        0.24366
H          6.62868       -2.96452       -1.07936
H          6.44710       -1.23909       -1.43389
C          3.99425        0.04086        1.17107
H          3.10098        0.55848        1.55443
H          4.22015       -0.76251        1.89349
C          5.15054        1.03749        1.07705
H          5.38285        1.46073        2.06617
H          6.07512        0.57913        0.69542
H          4.89887        1.88067        0.41582
C          3.32609        0.46534       -1.88361
H          2.59921        0.04108       -2.59639
H          2.85132        1.37125       -1.47005
C          4.62447        0.81587       -2.61338
H          5.07433       -0.06746       -3.09095
H          4.43850        1.55385       -3.40846
H          5.37906        1.24796       -1.93927
