75
6s_cyhexane_dIterbutyl_auhsi.log	Energy: -902288.0592322
C         -1.07070       -0.33449        0.60539
C         -3.12294        0.94689        0.90275
H         -3.36902        1.95663        0.56058
H         -3.53670        0.84149        1.91958
C         -3.24990       -1.42341        0.45784
H         -3.69457       -1.66972        1.43602
H         -3.57499       -2.19581       -0.25152
N         -1.66610        0.82247        0.92111
N         -1.78932       -1.46173        0.53096
C         -3.75404       -0.07839       -0.02166
C         -3.36871        0.16159       -1.49352
C         -5.28318       -0.04559        0.11803
C         -4.00002        1.41807       -2.08347
H         -3.71081       -0.71366       -2.07340
H         -2.27325        0.19473       -1.61145
C         -5.91734        1.21202       -0.46649
H         -5.69070       -0.92825       -0.40620
H         -5.56004       -0.16306        1.17945
C         -5.51515        1.41299       -1.92245
H         -3.72534        1.49958       -3.14666
H         -3.57981        2.31798       -1.59908
H         -7.01225        1.14443       -0.37509
H         -5.62320        2.09637        0.12631
H         -5.94806        2.34533       -2.31655
H         -5.93895        0.59406       -2.53065
C         -0.89281        2.07337        1.25205
C          0.31111        1.74472        2.13827
H          1.07512        1.13950        1.63145
H          0.79321        2.68084        2.45257
H         -0.00740        1.20048        3.03947
C         -1.76922        3.02090        2.08393
H         -1.13961        3.85360        2.42481
H         -2.59759        3.46524        1.51809
H         -2.17375        2.52576        2.97799
C         -1.16623       -2.83073        0.42786
C          0.08790       -2.93653        1.29967
H         -0.11948       -2.60026        2.32620
H          0.40560       -3.98749        1.33890
H          0.94385       -2.36111        0.91751
C         -2.14390       -3.87566        0.98596
H         -3.04704       -4.00485        0.37728
H         -1.63246       -4.84717        1.00152
H         -2.44152       -3.64142        2.01814
C         -0.86651       -3.14414       -1.03614
H         -1.77839       -3.08332       -1.64919
H         -0.13072       -2.43564       -1.45020
H         -0.45639       -4.15935       -1.13773
C         -0.48241        2.77871       -0.03864
H          0.04999        3.71474        0.18432
H          0.18134        2.14301       -0.64624
H         -1.36494        3.02533       -0.64789
Au         0.82476       -0.31407       -0.24255
H          2.15271       -0.37646       -1.26611
Si         3.50478        0.17123       -0.48649
C          3.81337       -0.66241        1.17586
H          2.89487       -0.63826        1.78577
H          4.01759       -1.72974        0.98165
C          4.96256       -0.02062        1.95840
H          4.74219        1.02684        2.21512
H          5.13894       -0.55628        2.90301
H          5.90853       -0.03148        1.39712
C          3.41011        2.04888       -0.43071
H          2.74720        2.37219       -1.25129
H          2.89974        2.34458        0.50136
C          4.76455        2.75119       -0.55047
H          4.64454        3.84375       -0.50170
H          5.45656        2.46405        0.25522
H          5.25694        2.52223       -1.50744
C          4.60308       -0.49940       -1.86066
H          4.23053       -1.50425       -2.12374
H          4.43591        0.12455       -2.75597
C          6.09245       -0.57237       -1.51945
H          6.28344       -1.25353       -0.67641
H          6.66943       -0.95047       -2.37654
H          6.51091        0.40995       -1.25456
