68
6s_cy3_ptolu_au_hsiet3.log	Energy: -970110.5442997
C          1.26530        1.03044        0.21360
C          3.52481        2.01393        0.32619
H          4.41058        1.77276       -0.27778
H          3.85998        2.11309        1.37398
C          1.52966        3.45676        0.51660
H          1.65609        3.66568        1.59362
H          0.97428        4.29637        0.07777
C          3.15869       -0.42674        0.19274
C          3.15296       -1.21869        1.34047
C          3.70342       -2.49707        1.29883
H          3.69030       -3.11444        2.20045
C          4.27675       -3.00239        0.12568
C          4.27607       -2.18557       -1.01395
H          4.70969       -2.56121       -1.94419
C          3.72562       -0.90875       -0.98683
C          4.90114       -4.36492        0.09356
H          4.76175       -4.84979       -0.88309
H          4.48266       -5.02089        0.86921
H          5.98713       -4.29674        0.27112
C         -0.69728        2.40747        0.28481
C         -1.36665        2.28145       -0.93199
C         -2.74679        2.45928       -0.98430
H         -3.26303        2.35953       -1.94231
C         -3.48210        2.77526        0.16464
C         -2.78531        2.92056        1.37257
H         -3.33490        3.17299        2.28299
C         -1.40740        2.73785        1.43909
C         -4.97297        2.92550        0.11606
H         -5.31140        3.78155        0.71757
H         -5.46737        2.02847        0.52484
H         -5.33346        3.06397       -0.91224
N          2.59056        0.88824        0.22584
N          0.72235        2.24293        0.34025
Au         0.09331       -0.64026        0.02944
Si        -2.31554       -1.87153       -0.16330
H         -0.68090       -2.12841       -0.10453
C         -2.75359       -1.20947       -1.86909
H         -2.09789       -0.35139       -2.08843
H         -2.49234       -1.98771       -2.60701
C         -4.21790       -0.79146       -2.01330
H         -4.47207        0.02735       -1.32303
H         -4.42700       -0.43552       -3.03355
H         -4.91233       -1.62082       -1.81174
C         -2.93343       -0.84213        1.28430
H         -2.27062       -1.03985        2.14424
H         -2.78814        0.22084        1.03169
C         -4.38785       -1.10697        1.67986
H         -4.69160       -0.44795        2.50747
H         -5.08619       -0.92922        0.84830
H         -4.53747       -2.14257        2.02013
C         -2.64955       -3.71558        0.02614
H         -1.88673       -4.26017       -0.55606
H         -2.46715       -3.98210        1.08189
C         -4.04691       -4.15708       -0.41291
H         -4.21511       -3.96555       -1.48366
H         -4.18374       -5.23715       -0.25355
H         -4.84427       -3.64338        0.14468
C          2.85637        3.26577       -0.15891
C          2.99012        3.64891       -1.60719
C          3.67991        4.45208       -0.54433
H          2.12059        4.08714       -2.10433
H          3.60128        3.01176       -2.25200
H          4.76629        4.36975       -0.45390
H          3.28786        5.44461       -0.30706
H         -0.88169        2.84007        2.39099
H         -0.79867        2.05003       -1.83604
H          2.71412       -0.83100        2.26276
H          3.71897       -0.28721       -1.88547
