101
6s_cy4_dipp_au_hsiet3.log	Energy: -1240988.7486933
C          1.06594        0.34107        0.22303
C          3.49284        0.34217        0.60141
H          4.28543       -0.20827        0.07455
H          3.70024        0.24901        1.68283
C          2.22261        2.44328        0.75091
H          2.30223        2.55024        1.84761
H          2.08094        3.45162        0.33626
C          2.22897       -1.74589        0.18737
C          2.08098       -2.50846        1.36043
C          2.12771       -3.90001        1.23904
H          2.01523       -4.52135        2.13050
C          2.31196       -4.50543        0.00076
C          2.43626       -3.72899       -1.14637
H          2.56593       -4.21681       -2.11521
C          2.39383       -2.33373       -1.08056
C          1.82858       -1.87374        2.71404
H          1.86795       -0.78061        2.58799
C          2.50235       -1.50803       -2.34585
H          2.34064       -0.45689       -2.06624
C         -0.22867        2.33831        0.35312
C         -0.66645        2.82023       -0.89404
C         -1.90944        3.45863       -0.94059
H         -2.28105        3.84299       -1.89352
C         -2.67858        3.61257        0.20850
C         -2.21272        3.14352        1.43292
H         -2.81773        3.29023        2.33065
C         -0.97352        2.50354        1.53525
C          0.16753        2.67093       -2.15118
H          1.10348        2.16986       -1.86681
C         -0.44150        2.07111        2.88833
H          0.46205        1.46641        2.71354
N          2.22216       -0.31266        0.29888
N          1.03299        1.65688        0.42299
Au        -0.62678       -0.71828       -0.22188
Si        -3.33463       -1.16121       -0.47950
H         -1.83300       -1.80183       -0.67218
C         -3.60049        0.29172       -1.63787
H         -2.76853        0.99909       -1.49510
H         -3.52080       -0.07244       -2.67667
C         -4.92448        1.02298       -1.41022
H         -4.97743        1.44852       -0.39650
H         -5.03436        1.85946       -2.11714
H         -5.79891        0.36857       -1.54307
C         -3.65016       -0.76902        1.33079
H         -2.99935       -1.41851        1.94050
H         -3.30321        0.26286        1.50771
C         -5.10589       -0.93356        1.77205
H         -5.22659       -0.65836        2.83068
H         -5.79179       -0.29914        1.19087
H         -5.44824       -1.97398        1.66663
C         -4.12732       -2.76511       -1.06803
H         -3.53222       -3.14186       -1.91751
H         -4.00752       -3.51302       -0.26475
C         -5.59493       -2.63827       -1.47977
H         -5.71917       -1.95079       -2.33023
H         -5.99938       -3.61315       -1.79084
H         -6.22995       -2.26981       -0.66037
C          3.47564        1.80406        0.19303
C          3.79303        2.02666       -1.31018
C          4.81253        2.50266        0.52781
C          5.26035        2.29544       -0.93097
H          3.29699        2.93112       -1.69190
H          3.58283        1.19903       -2.00256
H          4.65796        3.56551        0.76873
H          5.42027        2.05336        1.32837
H          5.75970        3.13817       -1.42746
H          5.89531        1.40558       -1.05185
C          3.89566       -1.61428       -2.96605
H          3.97890       -0.96484       -3.85104
H          4.68098       -1.32020       -2.25292
H          4.11295       -2.64462       -3.28744
C          1.40866       -1.87079       -3.34964
H          1.45090       -1.20346       -4.22392
H          1.51523       -2.90346       -3.71545
H          0.40882       -1.77740       -2.89677
C          2.89983       -2.25583        3.73426
H          2.89380       -3.33703        3.94068
H          3.90743       -1.99275        3.37846
H          2.72703       -1.73747        4.68964
C          0.42363       -2.21182        3.21486
H          0.30727       -3.29335        3.38433
H          0.21359       -1.69801        4.16522
H         -0.33969       -1.90367        2.48228
C         -0.51142        1.78000       -3.19025
H         -1.47147        2.20289       -3.52492
H          0.12983        1.66754       -4.07776
H         -0.70757        0.77450       -2.78638
C          0.53806        4.03421       -2.73487
H          1.04278        4.66896       -1.99057
H          1.21245        3.91465       -3.59655
H         -0.35119        4.58071       -3.08506
C         -0.03301        3.29694        3.70942
H         -0.90762        3.92351        3.94372
H          0.42543        2.99232        4.66263
H          0.68661        3.92925        3.16791
C         -1.41778        1.18932        3.66152
H         -0.97732        0.88783        4.62384
H         -2.35885        1.71499        3.88512
H         -1.66275        0.27668        3.10172
H          2.35190       -5.59455       -0.07207
H         -3.64689        4.11497        0.15137
