66
6s_cy3_tbu_au_hsiet3.log	Energy: -828387.2949959
C          1.58179        0.02914        0.35954
C          3.85499       -0.84832        0.17036
H          4.20929       -1.67965       -0.45194
H          4.40597       -0.88996        1.12471
C          3.47833        1.56467        0.23924
H          3.99299        1.71433        1.20318
H          3.56489        2.49863       -0.32936
N          2.41579       -1.02018        0.39229
N          2.05493        1.28062        0.44695
Au        -0.36587       -0.27917       -0.29238
Si        -3.11223       -0.13834       -0.34976
H         -1.75980       -0.63034       -1.16087
C         -3.27343        1.72069       -0.58181
H         -2.31386        2.19705       -0.32565
H         -3.42119        1.90720       -1.65991
C         -4.39996        2.35180        0.23908
H         -4.23161        2.22949        1.32010
H         -4.47155        3.43180        0.04170
H         -5.38248        1.91480        0.00660
C         -3.15368       -0.72909        1.43903
H         -2.59196       -1.67681        1.49947
H         -2.59742       -0.00895        2.06313
C         -4.56837       -0.93533        1.98811
H         -4.53426       -1.25872        3.03908
H         -5.16970       -0.01495        1.95030
H         -5.11165       -1.71057        1.42752
C         -4.22307       -1.13955       -1.49318
H         -3.79558       -1.08894       -2.50906
H         -4.15026       -2.19870       -1.19019
C         -5.68190       -0.67938       -1.52378
H         -5.77368        0.35406       -1.89108
H         -6.27618       -1.31481       -2.19721
H         -6.15722       -0.72278       -0.53267
C          4.09721        0.44625       -0.53071
C          4.05554        0.48328       -2.03259
C          5.35608        0.66419       -1.30488
H          3.60464        1.35628       -2.51230
H          3.88561       -0.45672       -2.56460
H          6.08550       -0.14953       -1.33553
H          5.80415        1.66113       -1.28317
C          1.17123        2.47916        0.67407
C          1.94747       -2.44232        0.56830
C          0.79536       -2.52576        1.57242
H          1.05634       -2.01548        2.51114
H         -0.14569       -2.09508        1.20090
H          0.59562       -3.58235        1.79774
C          3.08460       -3.27735        1.17540
H          3.94013       -3.41403        0.50255
H          3.44170       -2.84900        2.12290
H          2.69257       -4.27965        1.39299
C          1.55975       -3.02320       -0.78957
H          1.26236       -4.07698       -0.68799
H          0.71455       -2.47068       -1.23111
H          2.40239       -2.97623       -1.49608
C          1.99631        3.61042        1.30472
H          2.74845        4.03715        0.62971
H          1.31026        4.42671        1.56723
H          2.49213        3.28523        2.23040
C          0.06954        2.16317        1.68851
H         -0.66566        1.43135        1.32673
H          0.50135        1.77338        2.62198
H         -0.47940        3.08633        1.92088
C          0.60486        2.95315       -0.66259
H          1.41336        3.20803       -1.36454
H         -0.01438        2.17194       -1.13163
H         -0.01642        3.85011       -0.52442
