90
6s_cy3_ad_au_hsiet3.log	Energy: -1119399.2799215
C          0.45724        1.44273        0.05341
C          2.18003        3.16776       -0.08371
H          3.09725        3.16805       -0.68385
H          2.41497        3.64663        0.88161
C         -0.18643        3.79353       -0.07916
H         -0.14806        4.32045        0.88905
H         -0.98489        4.25283       -0.67295
N          1.75422        1.77936        0.11403
N         -0.50421        2.37571        0.11085
Au        -0.03522       -0.48737       -0.55227
Si        -0.99457       -3.08361       -0.51898
H         -0.28377       -1.90020       -1.41332
C         -2.60271       -3.20386       -1.48460
H         -2.98159       -2.17846       -1.63363
H         -2.35469       -3.57608       -2.49392
C         -3.68103       -4.07106       -0.83526
H         -3.98281       -3.67580        0.14717
H         -4.58532       -4.10873       -1.46076
H         -3.34673       -5.10894       -0.68615
C         -1.22938       -2.83883        1.33868
H         -0.35981       -2.30033        1.75127
H         -2.09813       -2.17823        1.49523
C         -1.41700       -4.15967        2.09118
H         -1.58986       -3.97384        3.16181
H         -2.27714       -4.73509        1.71803
H         -0.52734       -4.80216        2.01256
C          0.26722       -4.41543       -0.93464
H          0.70897       -4.16574       -1.91423
H          1.09354       -4.33931       -0.20612
C         -0.30082       -5.83547       -0.97039
H         -1.09197       -5.93581       -1.72915
H          0.48288       -6.56522       -1.22289
H         -0.72954       -6.14028       -0.00434
C          1.10994        3.91382       -0.80771
C          1.10251        3.89772       -2.31049
C          1.43759        5.15810       -1.56700
H          0.13573        3.83607       -2.81745
H          1.91031        3.36656       -2.82119
H          2.47610        5.49966       -1.56611
H          0.70384        5.96850       -1.56229
C         -1.94742        2.02839        0.35451
C         -2.06688        0.98137        1.47490
C         -2.72775        3.26737        0.84460
C         -2.61905        1.52831       -0.93071
H         -1.60469        1.38559        2.39101
H         -1.50277        0.07216        1.21841
C         -3.52900        0.60553        1.71994
H         -2.71253        4.06874        0.09322
H         -2.26444        3.66447        1.76198
C         -4.19671        2.91248        1.10969
H         -2.07176        0.64904       -1.31672
H         -2.55009        2.30868       -1.70767
C         -4.08037        1.16021       -0.66082
H         -3.56548       -0.17731        2.49532
C         -4.29516        1.83956        2.19153
C         -4.14196        0.07702        0.42004
H         -4.71170        3.82725        1.44259
C         -4.83598        2.40214       -0.18301
H         -4.53201        0.78367       -1.59271
H         -3.87365        2.20938        3.14065
H         -5.35061        1.58906        2.38488
H         -3.60005       -0.82377        0.08453
H         -5.18690       -0.22810        0.59074
H         -5.89691        2.16003       -0.01040
H         -4.81007        3.18463       -0.95946
C          2.84175        0.76492        0.34363
C          3.18600        0.02874       -0.95754
C          4.12756        1.45458        0.85025
C          2.43589       -0.22859        1.44657
H          3.50998        0.76102       -1.71681
H          2.28033       -0.46169       -1.35819
C          4.27910       -1.01321       -0.70867
H          3.91581        2.00670        1.78007
H          4.50560        2.17835        0.11545
C          5.23701        0.42218        1.09226
H          1.49979       -0.74655        1.18502
H          2.23213        0.33284        2.37376
C          3.52758       -1.27651        1.66746
H          4.48897       -1.54281       -1.65163
C          5.54498       -0.30910       -0.21583
C          3.79901       -2.00995        0.35039
H          6.13316        0.96233        1.43587
C          4.79986       -0.58532        2.15249
H          3.17707       -1.99318        2.42779
H          5.90511        0.40170       -0.97810
H          6.35239       -1.04197       -0.05770
H          2.88275       -2.51911        0.00250
H          4.55851       -2.79325        0.50391
H          5.59833       -1.32397        2.32853
H          4.61422       -0.07794        3.11346
