107
6s_cyhexane_dIdipp_auh.log	Energy: -1290261.5453987
C          0.91060        0.08656        0.22081
C          2.59667       -1.59671        0.83002
H          2.70544       -2.63988        0.50502
H          2.70864       -1.59467        1.92890
C          3.26028        0.74561        0.48717
H          3.44442        0.98466        1.54972
H          3.87211        1.43849       -0.10816
C          0.18542       -2.14566        0.64782
C         -0.46188       -2.24767        1.89278
C         -1.50710       -3.17076        2.00512
H         -2.02941       -3.27735        2.95875
C         -1.88810       -3.95772        0.92420
C         -1.20948       -3.86075       -0.28722
H         -1.49992       -4.50460       -1.11982
C         -0.14782       -2.96626       -0.44670
C         -0.03765       -1.43269        3.09975
H          0.72208       -0.70872        2.76684
C          0.61754       -2.88605       -1.75230
H          1.58027       -2.41144       -1.52270
C          1.49617        2.39027       -0.05832
C          1.43243        2.86284       -1.38288
C          1.12489        4.21224       -1.57645
H          1.06843        4.60833       -2.59301
C          0.89082        5.05750       -0.49766
C          0.94239        4.56255        0.80046
H          0.74317        5.23266        1.63980
C          1.24073        3.21994        1.04946
C          1.66138        1.96215       -2.57870
H          1.84195        0.94796       -2.19769
C          1.25388        2.70374        2.47469
H          1.42379        1.61612        2.43807
N          1.23633       -1.17638        0.49335
N          1.85830        1.01818        0.17869
C          3.65765       -0.69732        0.19487
C          3.77154       -0.93001       -1.32257
C          5.02222       -0.95786        0.85218
C          4.37770       -2.28037       -1.68990
H          4.40934       -0.13036       -1.73664
H          2.78753       -0.80684       -1.80198
C          5.61833       -2.31479        0.49542
H          5.71446       -0.16475        0.51792
H          4.93154       -0.84688        1.94610
C          5.72647       -2.49163       -1.01403
H          4.47788       -2.34695       -2.78459
H          3.69311       -3.09878       -1.40472
H          6.60788       -2.41345        0.96741
H          5.00101       -3.12520        0.92195
H          6.12691       -3.48758       -1.25790
H          6.45107       -1.75970       -1.41316
C          0.42020        1.89304       -3.46809
H          0.56969        1.17294       -4.28697
H         -0.46335        1.57651       -2.89068
H          0.18943        2.86946       -3.92107
C          2.90042        2.38035       -3.36970
H          2.77917        3.38303       -3.80795
H          3.79680        2.40554       -2.73164
H          3.08918        1.67734       -4.19545
C          2.39054        3.32544        3.28656
H          2.26077        4.41435        3.38373
H          2.42000        2.90261        4.30240
H          3.36931        3.15252        2.81406
C         -0.10019        2.91936        3.15022
H         -0.91298        2.46282        2.56455
H         -0.10782        2.47152        4.15527
H         -0.32971        3.98972        3.26375
C         -1.18856       -0.62346        3.69242
H         -1.61019        0.07267        2.95250
H         -2.00273       -1.27162        4.05108
H         -0.83819       -0.03122        4.55077
C          0.61123       -2.33344        4.15279
H         -0.11106       -3.06220        4.55200
H          1.45518       -2.90277        3.73492
H          0.98425       -1.73595        4.99860
C          0.92516       -4.26010       -2.34094
H          1.41390       -4.91610       -1.60505
H          0.01691       -4.77084       -2.69583
H          1.59677       -4.15886       -3.20667
C         -0.08125       -1.98791       -2.77172
H         -0.26943       -0.98365       -2.36173
H          0.53627       -1.87694       -3.67650
H         -1.04943       -2.41376       -3.07676
H         -2.71009       -4.66906        1.03224
H          0.65954        6.11093       -0.67043
Au        -1.03078        0.65803       -0.08269
H         -2.52490        1.40045       -0.29844
Si        -3.73174        0.29598       -0.47129
C         -4.98155        1.66798       -0.79392
H         -4.74662        2.50407       -0.11320
H         -4.80127        2.05313       -1.81284
C         -6.44338        1.25343       -0.61879
H         -6.65321        0.93555        0.41381
H         -7.11770        2.09399       -0.84128
H         -6.72691        0.42468       -1.28450
C         -4.00481       -0.62043        1.14408
H         -3.03534       -1.02869        1.46990
H         -4.30569        0.11239        1.91260
C         -5.01956       -1.76039        1.04302
H         -5.14823       -2.25568        2.01751
H         -6.01349       -1.41610        0.72032
H         -4.68602       -2.53067        0.33099
C         -3.42885       -0.82360       -1.94967
H         -2.78977       -0.28262       -2.66754
H         -2.82907       -1.67904       -1.59595
C         -4.70319       -1.30341       -2.64743
H         -5.27926       -0.46381       -3.06456
H         -4.46124       -1.97687       -3.48357
H         -5.36896       -1.85574       -1.96749
