77
6s_cyhexane_dIphme_auhsi.log	Energy: -1044010.8993622
C         -1.20194        0.04617       -0.44624
C         -2.73205       -1.83088       -0.84945
H         -2.69709       -2.87053       -0.50195
H         -2.95585       -1.85630       -1.93007
C         -3.63278        0.41790       -0.56907
H         -3.94692        0.53409       -1.62107
H         -4.26445        1.08779        0.03178
C         -0.30428       -2.17585       -0.59750
C          0.17745       -2.73244       -1.78137
C          1.19298       -3.68417       -1.73432
H          1.55794       -4.12186       -2.66690
C          1.74672       -4.09905       -0.51601
C          1.25592       -3.51680        0.66039
H          1.66416       -3.82925        1.62524
C          0.23625       -2.56948        0.62693
C          2.83554       -5.12906       -0.47270
H          3.82827       -4.65247       -0.51423
H          2.76956       -5.82021       -1.32430
H          2.79441       -5.71924        0.45345
C         -2.03131        2.28183       -0.31357
C         -2.33315        2.93549        0.88100
C         -2.11766        4.30498        0.98939
H         -2.34734        4.80922        1.93147
C         -1.60273        5.04854       -0.08213
C         -1.30859        4.37186       -1.27178
H         -0.90703        4.92829       -2.12231
C         -1.52514        3.00168       -1.39530
C         -1.40346        6.52970        0.03641
H         -2.34351        7.06499       -0.17638
H         -0.64969        6.89530       -0.67439
H         -1.09024        6.81471        1.05089
N         -1.40140       -1.25787       -0.63394
N         -2.24775        0.87097       -0.42937
C         -3.79651       -1.02394       -0.10976
C         -3.61530       -1.12394        1.41587
C         -5.19743       -1.51835       -0.49593
C         -3.92660       -2.51072        1.96790
H         -4.30064       -0.39337        1.88037
H         -2.59759       -0.81309        1.70437
C         -5.51477       -2.90621        0.05191
H         -5.93316       -0.79751       -0.09760
H         -5.30917       -1.49831       -1.59327
C         -5.32259       -2.96921        1.56266
H         -3.82985       -2.49693        3.06469
H         -3.17593       -3.23908        1.61220
H         -6.54816       -3.17512       -0.21551
H         -4.87469       -3.66220       -0.43611
H         -5.51533       -3.98835        1.93155
H         -6.07033       -2.31786        2.04938
H         -1.30282        2.48498       -2.33187
H         -2.72194        2.36556        1.72834
H         -0.15780       -2.14071        1.55127
H         -0.24761       -2.42297       -2.73876
Au         0.67713        0.80987       -0.17744
H          2.12191        1.64762        0.00404
Si         3.32461        0.55674        0.32311
C          4.59689        1.94664        0.29610
H          4.34433        2.61423       -0.54543
H          4.44626        2.54905        1.20917
C          6.05356        1.49582        0.17803
H          6.24031        0.97424       -0.77280
H          6.73327        2.36050        0.21014
H          6.35138        0.81855        0.99230
C          3.53508       -0.69382       -1.06571
H          2.56699       -1.19179       -1.24117
H          3.76884       -0.14150       -1.99229
C          4.60342       -1.74938       -0.77477
H          4.68044       -2.46505       -1.60742
H          5.60153       -1.31128       -0.62789
H          4.35912       -2.32798        0.12917
C          3.06182       -0.19557        2.02773
H          2.44536        0.50601        2.61532
H          2.44886       -1.10345        1.89928
C          4.35316       -0.51364        2.78469
H          4.94594        0.39341        2.97618
H          4.13321       -0.96826        3.76236
H          4.99625       -1.21801        2.23564
