69
6s_cy4_tbu_au_hsiet3.log	Energy: -853015.3713808
C         -1.45145       -0.00791       -0.62267
C         -3.61777       -0.49086        0.38858
H         -3.85812       -1.23542        1.15914
H         -4.46305       -0.46591       -0.31896
C         -2.98230        1.80203       -0.04921
H         -3.78248        1.95399       -0.79299
H         -2.75565        2.78029        0.39461
N         -2.38314       -0.90726       -0.27583
N         -1.76227        1.29396       -0.67951
Au         0.53921       -0.59812       -0.57134
Si         3.06370       -0.23935        0.38201
H          2.07090       -1.27121       -0.45136
C          2.38456        0.31401        2.05291
H          1.32913        0.61608        1.95341
H          2.38023       -0.57060        2.71329
C          3.19403        1.45437        2.67503
H          3.16064        2.36178        2.05240
H          2.79560        1.72350        3.66466
H          4.25269        1.18831        2.81336
C          3.56498        1.13876       -0.79693
H          3.45733        0.74544       -1.82254
H          2.83469        1.95992       -0.71271
C          4.98809        1.66192       -0.58942
H          5.21691        2.46548       -1.30522
H          5.13832        2.07310        0.41995
H          5.73780        0.87105       -0.74078
C          4.36198       -1.59263        0.55370
H          3.83927       -2.52516        0.82746
H          4.79595       -1.77482       -0.44482
C          5.45824       -1.29385        1.57795
H          5.04634       -1.17409        2.59161
H          6.18598       -2.11787        1.62106
H          6.01876       -0.37843        1.33713
C         -3.42975        0.85855        1.03123
C         -2.56578        0.79709        2.31632
C         -4.63334        1.28224        1.89926
C         -3.86028        0.82606        3.15223
H         -1.96204        1.70894        2.44260
H         -1.89964       -0.07316        2.42659
H         -4.78796        2.37145        1.87349
H         -5.59584        0.79487        1.68104
H         -3.87773        1.49880        4.02016
H         -4.16448       -0.17382        3.49438
C         -2.19845       -2.39342       -0.43963
C         -0.86881        2.33924       -1.29013
C          0.05683        2.89735       -0.21189
H         -0.51481        3.33882        0.61847
H          0.69483        2.10102        0.19932
H          0.70574        3.68279       -0.62618
C         -1.74419        3.46405       -1.86261
H         -1.09349        4.17524       -2.38855
H         -2.46907        3.07386       -2.59174
H         -2.28465        4.03582       -1.09848
C         -0.07754        1.78782       -2.47771
H          0.39645        2.62699       -3.00516
H          0.73009        1.09795       -2.19249
H         -0.73916        1.26679       -3.18480
C         -1.50753       -2.96206        0.79774
H         -0.50173       -2.52910        0.92154
H         -2.08613       -2.75000        1.70990
H         -1.40142       -4.05325        0.71307
C         -3.57581       -3.05085       -0.61015
H         -4.20145       -3.00424        0.28968
H         -4.13044       -2.61135       -1.45175
H         -3.42298       -4.11505       -0.83338
C         -1.42456       -2.71956       -1.71880
H         -1.86962       -2.21316       -2.58760
H         -0.35773       -2.45076       -1.67661
H         -1.46615       -3.80354       -1.89226
