74
6s_cypentane_dIphme_auhsi.log	Energy: -1019381.0064378
C         -1.30027       -0.34330       -0.38188
C         -2.35664       -2.53161       -0.73358
H         -2.11257       -3.51890       -0.31927
H         -2.52312       -2.66800       -1.81619
C         -3.74707       -0.52597       -0.59099
H         -4.03418       -0.52371       -1.65689
H         -4.53607        0.00690       -0.04128
C          0.09292       -2.28811       -0.53835
C          0.95305       -2.10162       -1.61896
C          2.20433       -2.71454       -1.62272
H          2.87107       -2.56364       -2.47526
C          2.61682       -3.52882       -0.56214
C          1.72656       -3.72095        0.50492
H          2.02271       -4.35521        1.34437
C          0.47833       -3.10864        0.52308
C          3.97633       -4.16062       -0.54785
H          3.92171       -5.22444       -0.27340
H          4.62675       -3.66968        0.19481
H          4.46931       -4.08453       -1.52634
C         -2.60802        1.65318       -0.32319
C         -3.05965        2.23444        0.86161
C         -3.15766        3.61837        0.95518
H         -3.50303        4.06783        1.88964
C         -2.81286        4.44734       -0.12192
C         -2.36294        3.84182       -1.30123
H         -2.08775        4.46570       -2.15522
C         -2.26509        2.45687       -1.40967
C         -2.95223        5.93651       -0.01986
H         -3.98857        6.24381       -0.23689
H         -2.29960        6.45472       -0.73579
H         -2.71228        6.29575        0.99103
N         -1.19442       -1.66545       -0.52858
N         -2.50268        0.22812       -0.42420
C         -3.59236       -1.94019       -0.06690
C         -3.47914       -2.01626        1.46456
C         -4.82379       -2.81093       -0.33830
C         -3.83045       -3.46872        1.81341
H         -4.22066       -1.32731        1.90142
H         -2.49324       -1.70386        1.84368
C         -4.71295       -3.98011        0.65111
H         -4.89508       -3.13164       -1.38935
H         -5.72480       -2.21202       -0.12640
H         -2.91923       -4.08000        1.90796
H         -4.33721       -3.53429        2.78641
H         -4.25422       -4.85661        0.16907
H         -5.70469       -4.30793        0.99239
H         -3.31810        1.60005        1.71290
H         -1.92134        1.99370       -2.33741
H         -0.19740       -3.25531        1.36920
H          0.63474       -1.48052       -2.45937
Au         0.34347        0.82353       -0.01870
H          1.54750        1.94228        0.34168
Si         3.00499        1.15552        0.37106
C          3.85009        2.67206        1.10168
H          3.41063        3.56655        0.62821
H          3.57033        2.72998        2.16809
C          5.37070        2.69426        0.93581
H          5.66279        2.71178       -0.12527
H          5.80195        3.59202        1.40349
H          5.85646        1.82230        1.39868
C          3.51909        0.80217       -1.40427
H          2.68138        0.30096       -1.91576
H          3.64996        1.77230       -1.91435
C          4.78249       -0.05162       -1.52427
H          5.05248       -0.20933       -2.57953
H          5.65084        0.41402       -1.03455
H          4.64081       -1.04461       -1.07115
C          3.00413       -0.33332        1.52001
H          2.28916       -0.12776        2.33509
H          2.58803       -1.18978        0.96485
C          4.37248       -0.68681        2.10703
H          4.76949        0.12301        2.73731
H          4.30339       -1.58449        2.74022
H          5.12055       -0.89465        1.32733
