86
6s_cypentane_dImes_auhsi.log	Energy: -1117892.0076049
C         -1.08516       -0.51539        0.24963
C         -3.49491       -0.92588        0.50384
H         -4.33973       -0.47289       -0.03357
H         -3.76604       -0.93282        1.57398
C         -1.90528       -2.79679        0.62224
H         -2.01473       -2.95755        1.70870
H         -1.58523       -3.75242        0.18217
C         -2.56020        1.35997        0.30137
C         -2.47178        2.06080        1.51500
C         -2.71191        3.43590        1.49613
H         -2.64562        3.99396        2.43412
C         -3.03351        4.11486        0.31764
C         -3.10010        3.38178       -0.87101
H         -3.33674        3.89817       -1.80533
C         -2.87046        2.00554       -0.90598
C         -2.08246        1.37058        2.78962
H         -2.64414        0.43894        2.95172
H         -2.25438        2.02158        3.65633
H         -1.01170        1.10525        2.78170
C         -3.32655        5.58533        0.33157
H         -2.79064        6.09745        1.14288
H         -4.40348        5.76308        0.48731
H         -3.05219        6.06153       -0.62021
C         -2.92424        1.25139       -2.20072
H         -1.97492        0.72899       -2.39986
H         -3.11898        1.93022       -3.04071
H         -3.71866        0.48877       -2.20037
C          0.51226       -2.29028        0.39107
C          1.13766       -2.60079       -0.82593
C          2.45413       -3.06829       -0.78652
H          2.95498       -3.30721       -1.72856
C          3.14283       -3.24102        0.41612
C          2.48013       -2.92966        1.60793
H          3.00468       -3.05256        2.55979
C          1.16927       -2.45041        1.62259
C          0.42422       -2.42703       -2.13318
H         -0.46123       -3.07728       -2.20064
H          1.08370       -2.67229       -2.97563
H          0.06796       -1.39295       -2.26688
C          4.56060       -3.72957        0.43876
H          4.65353       -4.64971        1.03598
H          5.22830       -2.98221        0.89653
H          4.93294       -3.94348       -0.57205
C          0.49729       -2.10640        2.91887
H         -0.06671       -1.16453        2.84810
H          1.23469       -2.00202        3.72547
H         -0.21160       -2.89160        3.22808
N         -2.33412       -0.05973        0.30597
N         -0.84364       -1.81835        0.38138
C         -3.22386       -2.34691        0.01775
C         -3.26119       -2.43246       -1.51638
C         -4.38339       -3.27245        0.40557
C         -4.75255       -2.44637       -1.87708
H         -2.79182       -3.38287       -1.81832
H         -2.69958       -1.62732       -2.01121
C         -5.48284       -2.98658       -0.62593
H         -4.71139       -3.13158        1.44740
H         -4.03699       -4.31563        0.31789
H         -5.10749       -1.43466       -2.12889
H         -4.93971       -3.05894       -2.77017
H         -6.19505       -2.24255       -0.23814
H         -6.07377       -3.88754       -0.84160
Au         0.43609        0.81656       -0.04977
H          1.52238        2.07647       -0.31391
Si         3.05085        1.44537       -0.38210
C          3.79069        3.17137       -0.53109
H          3.13834        3.76355       -1.19535
H          3.72289        3.65125        0.46085
C          5.22773        3.20456       -1.05431
H          5.29735        2.79640       -2.07410
H          5.60590        4.23710       -1.09369
H          5.91884        2.62985       -0.41973
C          3.24990        0.41591       -1.94464
H          2.42139       -0.30866       -1.99335
H          3.12009        1.09001       -2.80912
C          4.58375       -0.32852       -2.02690
H          4.66131       -0.89084       -2.96986
H          5.44814        0.35081       -1.98316
H          4.68782       -1.05393       -1.20613
C          3.48879        0.57096        1.22268
H          2.92328        1.06102        2.03409
H          3.09944       -0.45885        1.16265
C          4.98126        0.56356        1.56017
H          5.37382        1.58123        1.70526
H          5.16713        0.00970        2.49303
H          5.58426        0.08654        0.77302
