72
6s_cypentane_dIterbutyl_auhsi.log	Energy: -877657.7824163
C         -1.25001       -0.23232        0.55159
C         -3.25620        1.13851        0.71590
H         -3.45213        2.13942        0.31518
H         -3.71618        1.09310        1.71692
C         -3.46459       -1.24581        0.35929
H         -3.96234       -1.43595        1.32416
H         -3.78724       -2.03187       -0.33654
N         -1.80769        0.95968        0.80037
N         -2.00980       -1.33430        0.50000
C         -3.87505        0.09567       -0.19372
C         -3.47133        0.31705       -1.66115
C         -5.39688        0.26632       -0.25711
C         -4.37771        1.45364       -2.15234
H         -3.68067       -0.60982       -2.22021
H         -2.39966        0.53200       -1.79446
C         -5.63138        1.41511       -1.24821
H         -5.84626        0.44301        0.73265
H         -5.83536       -0.66881       -0.64309
H         -3.86563        2.42510       -2.06825
H         -4.62372        1.33676       -3.21710
H         -5.75913        2.36978       -0.71559
H         -6.55632        1.26439       -1.82203
C         -1.00060        2.19597        1.10047
C         -1.43870       -2.72923        0.48724
C         -0.21254       -2.83762        1.39744
H         -0.42899       -2.43312        2.39711
H          0.05633       -3.89737        1.50541
H          0.67759       -2.32395        1.00533
C         -2.47357       -3.70176        1.07216
H         -3.36730       -3.82313        0.44815
H         -2.00609       -4.69225        1.14993
H         -2.78424       -3.40141        2.08324
C         -1.11229       -3.13194       -0.94899
H         -0.33911       -2.47374       -1.37757
H         -0.73856       -4.16549       -0.98491
H         -2.00392       -3.07140       -1.59118
C          0.18113        1.86595        2.01517
H          0.67569        2.80072        2.31365
H         -0.16270        1.35136        2.92441
H          0.94276        1.23480        1.53739
C         -0.55167        2.84128       -0.20858
H          0.10372        2.16478       -0.78015
H         -1.41779        3.08926       -0.84100
H          0.00254        3.77073       -0.01277
C         -1.86253        3.19425        1.88714
H         -2.29053        2.73921        2.79165
H         -1.21690        4.02255        2.20809
H         -2.67267        3.63880        1.29588
Au         0.66602       -0.32178       -0.24244
H          2.01458       -0.48594       -1.22715
Si         3.36442        0.06929       -0.44824
C          3.60755       -0.67156        1.26809
H          2.67407       -0.59043        1.84963
H          3.78980       -1.75300        1.14194
C          4.75141       -0.01252        2.04403
H          4.55095        1.05313        2.23339
H          4.88906       -0.49601        3.02261
H          5.71136       -0.07871        1.51098
C          3.32320        1.94874       -0.50828
H          2.69444        2.23864       -1.36738
H          2.79380        2.31453        0.38755
C          4.70000        2.60615       -0.62777
H          4.60962        3.70243       -0.64873
H          5.35946        2.35054        0.21494
H          5.21370        2.30624       -1.55339
C          4.47529       -0.71449       -1.75031
H          4.07931       -1.72232       -1.96291
H          4.35044       -0.14134       -2.68559
C          5.95236       -0.80941       -1.36393
H          6.10043       -1.44301       -0.47633
H          6.53977       -1.25557       -2.18022
H          6.39348        0.17478       -1.14709
