93
6s_cy4_ad_au_hsiet3.log	Energy: -1144027.2452059
C         -0.72400        1.18551       -0.19183
C         -2.80397        2.44814       -0.16604
H         -3.73635        2.24695        0.37376
H         -3.07760        2.84654       -1.15756
C         -0.68284        3.62435       -0.11063
H         -0.83085        4.11709       -1.08623
H         -0.03048        4.27112        0.48866
N         -2.06118        1.19486       -0.28777
N         -0.02422        2.32683       -0.26684
Au         0.21092       -0.53734        0.50890
Si         1.78483       -2.81229        0.61420
H          0.78074       -1.80358        1.43961
C          3.33279       -2.50698        1.63541
H          3.45723       -1.41502        1.73280
H          3.13251       -2.87362        2.65731
C          4.61080       -3.13090        1.07491
H          4.85875       -2.72559        0.08171
H          5.46927       -2.92565        1.73165
H          4.53231       -4.22414        0.97632
C          2.03174       -2.57396       -1.24243
H          1.07576       -2.27820       -1.70613
H          2.71857       -1.72495       -1.39436
C          2.56874       -3.83043       -1.93450
H          2.73794       -3.64030       -3.00495
H          3.52589       -4.16606       -1.50857
H          1.86001       -4.66883       -1.86165
C          0.86416       -4.39651        1.03973
H          0.33007       -4.23057        1.99066
H          0.07878       -4.54598        0.27811
C          1.75447       -5.63522        1.15563
H          2.50839       -5.51889        1.94915
H          1.15768       -6.52516        1.40530
H          2.29055       -5.85537        0.22064
C         -1.99189        3.45544        0.60552
C         -1.93205        3.13486        2.12073
C         -2.78765        4.73451        0.94073
C         -3.04185        4.17794        2.35542
H         -0.96922        3.43570        2.56107
H         -2.13228        2.09305        2.41615
H         -2.13941        5.62377        0.94899
H         -3.66085        4.95357        0.30715
H         -2.90374        4.87200        3.19534
H         -4.03708        3.72084        2.45614
C         -2.86647       -0.06293       -0.47421
C         -3.04776       -0.79811        0.85981
C         -4.27094        0.26723       -1.02524
C         -2.20855       -0.97892       -1.52147
H         -3.55619       -0.13172        1.57761
H         -2.05845       -1.03363        1.29246
C         -3.84937       -2.08569        0.65584
H         -4.18131        0.81296       -1.97837
H         -4.82977        0.90794       -0.32973
C         -5.09021       -1.01511       -1.22463
H         -1.18005       -1.23953       -1.22570
H         -2.12854       -0.42968       -2.47450
C         -3.00762       -2.27084       -1.69730
H         -3.94361       -2.60478        1.62298
C         -5.23805       -1.73609        0.11674
C         -3.11981       -2.98467       -0.34669
H         -6.08357       -0.72690       -1.60290
C         -4.39941       -1.93482       -2.22808
H         -2.47760       -2.91581       -2.41678
H         -5.77596       -1.09892        0.83829
H         -5.83940       -2.65055       -0.01025
H         -2.11477       -3.23803        0.03447
H         -3.66294       -3.93582       -0.46625
H         -4.99044       -2.85345       -2.37292
H         -4.32276       -1.44385       -3.21218
C          1.46714        2.34355       -0.46060
C          1.88519        1.31256       -1.52261
C          1.92588        3.71635       -0.99865
C          2.19743        2.08681        0.86357
H          1.36767        1.54505       -2.46832
H          1.56239        0.30133       -1.23321
C          3.40241        1.30952       -1.71522
H          1.68136        4.52149       -0.29278
H          1.40860        3.93852       -1.94586
C          3.44514        3.73462       -1.21094
H          1.87575        1.11541        1.28151
H          1.90707        2.85755        1.59780
C          3.71272        2.09040        0.64581
H          3.66177        0.52774       -2.44799
C          3.84940        2.67482       -2.23281
C          4.08290        1.01152       -0.37618
H          3.72441        4.73441       -1.57874
C          4.14608        3.46112        0.12119
H          4.21248        1.88263        1.60562
H          3.38231        2.88310       -3.20937
H          4.94013        2.69124       -2.38835
H          3.77374        0.01863       -0.00683
H          5.17628        0.97355       -0.50729
H          5.23924        3.48936       -0.01380
H          3.89548        4.24501        0.85507
