76
6s_dih_dImes_auhsi.log	Energy: -1020146.4696028
C          1.01375        1.38106       -0.06542
C          0.72795        3.81873       -0.17502
H          0.00861        4.46796        0.34314
H          0.76108        4.15041       -1.22711
C          2.09955        3.89078        0.46180
H          2.01178        3.72918        1.54824
H          2.53549        4.88802        0.31120
C          2.99839        2.83133       -0.13927
H          3.25662        3.07530       -1.18407
H          3.94474        2.74494        0.41255
C         -1.20732        2.27382       -0.10608
C         -1.87901        2.07608       -1.32048
C         -3.26859        1.92933       -1.28188
H         -3.80650        1.76757       -2.21992
C         -3.98614        1.98894       -0.08488
C         -3.27718        2.19515        1.10414
H         -3.82134        2.23844        2.05187
C         -1.88932        2.33644        1.11972
C         -1.12981        1.99626       -2.61774
H         -0.54376        2.90808       -2.81021
H         -1.81813        1.85962       -3.46163
H         -0.41965        1.15313       -2.62006
C         -5.47834        1.84032       -0.06461
H         -5.79482        1.09451        0.68072
H         -5.86990        1.53492       -1.04428
H         -5.96341        2.79122        0.20778
C         -1.14050        2.50461        2.40796
H         -0.43606        1.67170        2.56723
H         -1.82851        2.53413        3.26251
H         -0.54819        3.43296        2.42597
C          3.16874        0.35668       -0.06876
C          3.62173       -0.12177        1.17062
C          4.43665       -1.25436        1.17438
H          4.79408       -1.64260        2.13206
C          4.80508       -1.90358       -0.00844
C          4.32619       -1.39739       -1.22043
H          4.59913       -1.89703       -2.15394
C          3.50847       -0.26711       -1.27835
C          3.21350        0.54660        2.45024
H          3.52430        1.60295        2.48338
H          3.66093        0.04302        3.31662
H          2.11863        0.52960        2.57749
C          5.71538       -3.09479        0.02171
H          6.77024       -2.77553       -0.01011
H          5.54775       -3.75475       -0.84079
H          5.58115       -3.68327        0.94024
C          2.98150        0.23923       -2.58885
H          1.88879        0.10702       -2.65528
H          3.43362       -0.30265       -3.42927
H          3.18530        1.31103       -2.73248
N          0.21716        2.44850       -0.11285
N          2.33663        1.52771       -0.09408
Au         0.23714       -0.50692        0.04616
H         -0.18265       -2.13442        0.14723
Si        -1.83279       -2.25651        0.09082
C         -1.73070       -4.12751        0.28207
H         -0.88466       -4.48524       -0.32923
H         -1.45522       -4.34191        1.32944
C         -3.00522       -4.87752       -0.10921
H         -3.24782       -4.73713       -1.17353
H         -2.88817       -5.95920        0.05486
H         -3.87915       -4.55328        0.47532
C         -2.47480       -1.71589       -1.59365
H         -2.06022       -0.72115       -1.82374
H         -2.06032       -2.40571       -2.34919
C         -4.00119       -1.66108       -1.68024
H         -4.32580       -1.36741       -2.69007
H         -4.47072       -2.63103       -1.45841
H         -4.41460       -0.92166       -0.97811
C         -2.60532       -1.38349        1.56438
H         -1.87426       -1.41398        2.39071
H         -2.72039       -0.31925        1.29963
C         -3.94008       -1.97061        2.02805
H         -3.83381       -3.01163        2.36840
H         -4.34694       -1.39477        2.87321
H         -4.69919       -1.95946        1.23156
