86
6s_dinbu_dIterbutyl_auhsi.log	Energy: -976902.1859781
C          3.02391        1.13444        0.08422
C          3.46166       -0.16374       -0.56833
C          2.83372       -1.28113        0.24782
C          0.83240        0.05283        0.39893
H          3.17042        1.96564       -0.62399
H          3.24555       -1.27792        1.27053
N          1.38084       -1.16269        0.31639
N          1.61611        1.13836        0.49450
H          3.09704       -2.24007       -0.20661
H          3.65875        1.33808        0.95697
C          5.00028       -0.27231       -0.49289
H          5.31395       -1.08820       -1.16661
H          5.41350        0.64790       -0.94281
C          3.09438       -0.23663       -2.06942
H          3.85478        0.35738       -2.60655
H          3.25621       -1.27750       -2.40203
C          5.64747       -0.48982        0.86922
H          5.40024       -1.49326        1.25666
H          5.25083        0.22633        1.61222
C          1.72972        0.23569       -2.55500
H          1.54825        1.27223       -2.22627
H          0.92305       -0.36736       -2.11335
C          7.16472       -0.35032        0.82079
H          7.56633       -1.04839        0.06564
H          7.42205        0.66031        0.45810
C          7.83400       -0.60232        2.16135
H          8.92581       -0.48973        2.09341
H          7.47538        0.10319        2.92799
H          7.62843       -1.62080        2.52759
C          1.59090        0.17683       -4.07033
H          2.37685        0.79642       -4.53634
H          1.78271       -0.85499       -4.41385
C          0.22237        0.63211       -4.55004
H         -0.57828        0.00519       -4.12362
H          0.02020        1.67342       -4.25101
H          0.13576        0.57973       -5.64501
C          1.07792        2.49133        0.88995
C          0.49554        3.20354       -0.32994
H         -0.33619        2.63059       -0.77128
H          0.11104        4.19361       -0.04552
H          1.25839        3.35096       -1.10884
C          0.04757        2.36300        2.01538
H         -0.18666        3.36460        2.40160
H         -0.90383        1.91432        1.69457
H          0.44789        1.75893        2.84290
C          2.21607        3.34513        1.46726
H          1.78496        4.29300        1.81581
H          2.69024        2.86006        2.33285
H          2.98991        3.59942        0.73254
C          0.56723       -2.43248        0.40372
C         -0.40359       -2.35012        1.58536
H         -0.94129       -3.30343        1.68479
H          0.14331       -2.16313        2.52126
H         -1.15642       -1.55792        1.47143
C         -0.15069       -2.68949       -0.92024
H          0.57264       -2.78297       -1.74368
H         -0.72758       -3.62406       -0.86406
H         -0.84934       -1.87620       -1.17227
C          1.47492       -3.63571        0.68785
H          0.82859       -4.50352        0.87645
H          2.11933       -3.90338       -0.16016
H          2.09732       -3.49060        1.58192
Au        -1.17790        0.32701       -0.04795
H         -2.66383        0.71744       -0.72387
Si        -3.88210        0.00468        0.13751
C         -3.81466        0.36941        1.98574
H         -2.80268        0.16136        2.37134
H         -3.96946        1.45450        2.11735
C         -4.84233       -0.42983        2.79177
H         -4.65757       -1.51273        2.72239
H         -4.79784       -0.16049        3.85755
H         -5.87308       -0.24801        2.45341
C         -3.91833       -1.82048       -0.31517
H         -3.45802       -1.92311       -1.31265
H         -3.25443       -2.36322        0.37850
C         -5.31685       -2.44182       -0.32306
H         -5.26939       -3.50964       -0.58388
H         -5.81227       -2.36828        0.65648
H         -5.97166       -1.95713       -1.06259
C         -5.16479        1.04157       -0.77074
H         -4.77528        2.07204       -0.83492
H         -5.21315        0.67575       -1.81129
C         -6.55525        1.05271       -0.13341
H         -6.53551        1.48852        0.87696
H         -7.25272        1.65755       -0.73189
H         -6.98761        0.04442       -0.05196
