106
6s_diet_dIdipp_auhsi.log	Energy: -1266376.8446926
C          2.25011        2.36948       -0.03005
C          3.47667        1.72779        0.62258
C          3.46763        0.21518        0.36492
C          0.99778        0.28069        0.13146
H          2.42197        2.49271       -1.11069
H          4.00228       -0.31062        1.17033
N          2.13899       -0.39217        0.25237
N          1.00897        1.61295        0.11908
H          4.00988       -0.01753       -0.56343
H          2.08589        3.37555        0.38121
C          2.12432       -1.82687        0.10329
C          2.41777       -2.36414       -1.16582
C          1.83701       -2.64630        1.21228
C          2.44673       -3.75499       -1.29605
C          1.86786       -4.03120        1.02337
C          2.17878       -4.58379       -0.21292
H          2.67552       -4.19773       -2.26806
H          1.64789       -4.68959        1.86684
C         -0.21545        2.32031       -0.15545
C         -0.91074        2.91279        0.91625
C         -0.66087        2.42412       -1.48788
C         -2.11840        3.55665        0.63422
C         -1.86657        3.09582       -1.71776
C         -2.59722        3.64167       -0.66934
H         -2.68487        4.01634        1.44590
H         -2.23630        3.19882       -2.74033
C          1.49201       -2.09008        2.57743
H          1.48959       -0.99614        2.49594
C          2.66342       -1.49934       -2.38711
H          2.52451       -0.44749       -2.09224
C          0.13462        1.89291       -2.66623
H          0.94965        1.26538       -2.27284
C         -0.37142        2.85278        2.33092
H          0.72008        2.74973        2.24463
C          3.57117        2.06137        2.13092
H          4.63548        2.00057        2.41334
H          3.30245        3.12438        2.25081
C          4.74762        2.32527       -0.02985
H          4.85109        3.36404        0.32662
H          5.60740        1.78454        0.40087
C          2.78426        1.21485        3.11555
H          3.19012        0.19725        3.19143
H          2.84552        1.65343        4.12231
H          1.72093        1.13275        2.85946
C          4.85348        2.30528       -1.54809
H          4.16742        3.01435       -2.03474
H          5.86940        2.59217       -1.85504
H          4.66329        1.30798       -1.97622
C          1.63383       -1.79067       -3.47835
H          1.73185       -2.81739       -3.86205
H          0.60852       -1.67112       -3.09834
H          1.76839       -1.10634       -4.32973
C          4.09063       -1.65301       -2.91390
H          4.84040       -1.43956       -2.13675
H          4.27496       -2.67789       -3.27081
H          4.26896       -0.97078       -3.75919
C          0.09206       -2.51051        3.02427
H         -0.66699       -2.20767        2.28468
H          0.01369       -3.60083        3.15411
H         -0.16276       -2.04068        3.98656
C          2.54579       -2.47546        3.61585
H          2.56632       -3.56338        3.78344
H          3.55597       -2.17439        3.29903
H          2.33264       -1.99434        4.58264
C         -0.63634        4.12512        3.13007
H         -1.70389        4.24977        3.36796
H         -0.09794        4.08596        4.08874
H         -0.30330        5.02271        2.58819
C         -0.88636        1.62033        3.07490
H         -0.42609        1.54704        4.07198
H         -1.97690        1.67614        3.21248
H         -0.66623        0.69130        2.52610
C         -0.69947        1.00607       -3.58737
H         -1.54740        1.55308       -4.02628
H         -0.08504        0.63436       -4.41984
H         -1.10051        0.13432       -3.04919
C          0.76843        3.04874       -3.44508
H          1.37534        3.69633       -2.79464
H          1.41444        2.66673       -4.25038
H         -0.00357        3.68310       -3.90743
H         -3.53837        4.15788       -0.87191
H          2.20687       -5.66877       -0.33531
Au        -0.74451       -0.76581       -0.11918
H         -2.01571       -1.83091       -0.40770
Si        -3.47294       -1.10223       -0.17397
C         -4.35696       -2.76519       -0.21071
H         -3.85992       -3.39561       -0.96765
H         -4.17606       -3.26308        0.75806
C         -5.85458       -2.68153       -0.51012
H         -6.04483       -2.25014       -1.50465
H         -6.31252       -3.68197       -0.49906
H         -6.39588       -2.06834        0.22560
C         -3.82812       -0.01028       -1.65808
H         -2.96278        0.65676       -1.79568
H         -3.87220       -0.64932       -2.55692
C         -5.09606        0.83346       -1.51966
H         -5.25927        1.44435       -2.42053
H         -5.99880        0.22112       -1.37550
H         -5.02396        1.52683       -0.66779
C         -3.59603       -0.21212        1.47748
H         -2.90862       -0.69877        2.18940
H         -3.20495        0.80858        1.32879
C         -5.00822       -0.17317        2.06550
H         -5.38635       -1.18327        2.28334
H         -5.02126        0.38834        3.01203
H         -5.72884        0.31171        1.39010
