74
6s_diet_dIterbutyl_auhsi.log	Energy: -878406.4821113
C          3.38257       -0.85929        0.61628
C          3.53934        0.56404        1.11809
C          3.09790        1.47535       -0.01352
C          1.31770       -0.09015       -0.48560
H          3.37899       -1.54658        1.47715
H          3.80172        1.39580       -0.85763
N          1.74975        1.17415       -0.48644
N          2.14938       -1.08548       -0.14213
H          3.12968        2.51069        0.33882
H          4.24714       -1.12806       -0.00561
C          5.03042        0.82398        1.43551
H          5.09178        1.77400        1.99259
H          5.34597        0.04726        2.15296
C          2.77233        0.82217        2.43617
H          3.36869        0.35145        3.23629
H          2.82390        1.90589        2.63898
C          6.01530        0.86719        0.27648
H          5.87433        1.74778       -0.36760
H          7.04330        0.92039        0.66267
H          5.96411       -0.02833       -0.36304
C          1.33409        0.35009        2.59585
H          1.22967       -0.73159        2.42900
H          0.99571        0.54949        3.62338
H          0.63677        0.86080        1.92013
C          0.94236        2.31869       -1.05414
C          1.82387       -2.53697       -0.39978
C          0.94191       -3.08329        0.72192
H         -0.01064       -2.53295        0.78652
H          0.70921       -4.14276        0.54233
H          1.44693       -3.01187        1.69700
C          3.12258       -3.35464       -0.45210
H          3.80756       -2.98282       -1.22779
H          3.65595       -3.39565        0.50556
H          2.86009       -4.38827       -0.71371
C          0.31032        1.92080       -2.39136
H         -0.18138        2.79785       -2.83449
H          1.07993        1.56666       -3.09282
H         -0.45219        1.13300       -2.30306
C         -0.10133        2.76575       -0.03336
H          0.38002        3.09867        0.89828
H         -0.69220        3.60442       -0.42993
H         -0.79364        1.94720        0.21278
C          1.85294        3.51435       -1.36576
H          1.25109        4.26255       -1.89871
H          2.24629        4.01093       -0.46925
H          2.69090        3.24069       -2.02197
C          1.17229       -2.71570       -1.77369
H          1.10861       -3.78820       -2.00328
H          0.14705       -2.31958       -1.83707
H          1.77299       -2.22988       -2.55637
Au        -0.71342       -0.51083       -0.62895
H         -2.30453       -1.03782       -0.74517
Si        -3.28535       -0.11108        0.20864
C         -2.63592        0.14140        1.96088
H         -2.00319       -0.72535        2.21795
H         -1.96112        1.01342        1.96697
C         -3.73699        0.30951        3.01119
H         -4.37527       -0.58407        3.07762
H         -3.30135        0.47178        4.00839
H         -4.38941        1.16926        2.79748
C         -4.66678       -1.38703        0.11130
H         -4.65199       -1.82555       -0.90103
H         -4.41685       -2.21299        0.79976
C         -6.05907       -0.82764        0.41071
H         -6.82049       -1.61867        0.33999
H         -6.13062       -0.39756        1.42058
H         -6.34366       -0.04155       -0.30537
C         -3.66737        1.46004       -0.75375
H         -2.73275        1.86399       -1.17404
H         -4.28278        1.16826       -1.62259
C         -4.37301        2.53434        0.07530
H         -3.74984        2.87135        0.91830
H         -4.59867        3.41996       -0.53732
H         -5.32719        2.17891        0.49277
