64
6s_dih_dIphme_auhsi.log	Energy: -921634.8707141
C         -1.14103        1.51708        0.01164
C         -0.88541        3.96590        0.05077
H         -0.17249        4.60772       -0.48466
H         -0.92039        4.32364        1.09439
C         -2.25360        4.00690       -0.59302
H         -2.16066        3.82370       -1.67550
H         -2.70039        5.00261       -0.46559
C         -3.14384        2.95356        0.02853
H         -3.41267        3.21386        1.06686
H         -4.08417        2.84338       -0.52906
C          1.06271        2.45360        0.11781
C          1.64850        2.00984        1.30204
C          3.03295        1.87479        1.38238
H          3.48316        1.52605        2.31500
C          3.85656        2.18826        0.29558
C          3.24745        2.65348       -0.87956
H          3.86836        2.90697       -1.74266
C          1.86655        2.78485       -0.97414
C          5.34407        2.01694        0.36889
H          5.86774        2.93204        0.05405
H          5.67778        1.20884       -0.30223
H          5.67443        1.76805        1.38623
C         -3.29570        0.48723        0.07376
C         -3.96957        0.05781       -1.06936
C         -4.77230       -1.07618       -1.00929
H         -5.29011       -1.41263       -1.91102
C         -4.92215       -1.80020        0.18205
C         -4.23668       -1.35026        1.31690
H         -4.33626       -1.89723        2.25772
C         -3.43375       -0.21352        1.27143
C         -5.81520       -3.00271        0.24246
H         -6.86195       -2.69873        0.40812
H         -5.53476       -3.67509        1.06481
H         -5.78782       -3.57315       -0.69684
N         -0.35838        2.59882        0.03253
N         -2.46701        1.65542        0.02063
H         -3.85160        0.60441       -2.00806
H         -2.90976        0.13393        2.16485
H          1.01594        1.77628        2.16159
H          1.40703        3.13151       -1.90276
Au        -0.34287       -0.36807       -0.08253
H          0.10339       -1.98462       -0.21796
Si         1.75492       -2.08871       -0.14781
C          1.69755       -3.91012       -0.62370
H          0.83021       -4.36615       -0.11653
H          1.47680       -3.96727       -1.70392
C          2.96593       -4.69553       -0.28507
H          3.15760       -4.70916        0.79871
H          2.87514       -5.74304       -0.60933
H          3.85988       -4.28094       -0.77448
C          2.29271       -1.80263        1.63258
H          1.82914       -0.86899        1.99029
H          1.86041       -2.61151        2.24683
C          3.80934       -1.72902        1.81770
H          4.06972       -1.58186        2.87690
H          4.31720       -2.64654        1.48474
H          4.24316       -0.88869        1.25460
C          2.59458       -0.99884       -1.42894
H          1.91812       -0.92142       -2.29742
H          2.66626        0.01931       -1.01283
C          3.96975       -1.49186       -1.88484
H          3.90925       -2.47114       -2.38284
H          4.41458       -0.78984       -2.60652
H          4.67703       -1.59070       -1.04775
