82
6s_dime_dImes_auhsi.log	Energy: -1069397.1803030
C         -3.33519        1.94334        0.35948
C         -2.75103        3.24819       -0.17846
C         -1.33142        3.37034        0.37280
C         -1.11210        0.94236        0.07341
H         -4.28902        1.71186       -0.13675
H         -1.35872        3.60352        1.45145
C         -2.73856        3.24350       -1.70706
H         -3.76115        3.14447       -2.10100
H         -2.32561        4.18739       -2.09333
H         -2.13825        2.41936       -2.11538
C         -3.58660        4.41769        0.33453
H         -3.17512        5.37564       -0.01753
H         -4.62204        4.34694       -0.03114
H         -3.61604        4.44433        1.43482
N         -0.55359        2.14814        0.16559
N         -2.43486        0.81306        0.14150
H         -0.79564        4.19582       -0.11818
H         -3.54538        2.03549        1.43896
C          0.87756        2.27102        0.20456
C          1.57389        2.57743       -0.97315
C          1.53862        2.12023        1.43607
C          2.95975        2.74290       -0.89209
C          2.92418        2.28308        1.46155
C          3.65417        2.60197        0.31119
H          3.51307        2.98468       -1.80357
H          3.44910        2.16850        2.41414
C         -3.00533       -0.50706        0.13840
C         -3.20965       -1.16148        1.36382
C         -3.34258       -1.10611       -1.08662
C         -3.76191       -2.44395        1.33639
C         -3.89189       -2.38853       -1.05821
C         -4.11446       -3.07371        0.14018
H         -3.91896       -2.96810        2.28312
H         -4.15319       -2.86833       -2.00538
C          0.78636        1.76710        2.68549
H         -0.03678        2.46907        2.88734
H          0.33956        0.76169        2.61194
H          1.45107        1.77381        3.55880
C          0.86602        2.68991       -2.28909
H          0.31778        1.76375       -2.52506
H          0.13024        3.50815       -2.29396
H          1.57868        2.87913       -3.10196
C          5.14323        2.76889        0.37291
H          5.64106        1.80607        0.57364
H          5.54657        3.16318       -0.56929
H          5.43408        3.45409        1.18310
C         -3.10571       -0.40259       -2.38954
H         -3.67415        0.53759       -2.45444
H         -2.04231       -0.14601       -2.52273
H         -3.40782       -1.03428       -3.23458
C         -2.85188       -0.51612        2.67061
H         -1.88857        0.01229        2.61942
H         -3.61363        0.21848        2.97925
H         -2.78502       -1.26539        3.47024
C         -4.73951       -4.43669        0.14080
H         -5.83918       -4.35728        0.13986
H         -4.45456       -5.01256       -0.75106
H         -4.45400       -5.01304        1.03175
Au         0.03031       -0.73748       -0.15266
H          0.77699       -2.23191       -0.36438
Si         2.41111       -2.02102       -0.19085
C          2.71264       -3.84607       -0.54514
H          1.92899       -4.42516       -0.02738
H          2.54284       -4.00973       -1.62365
C          4.09333       -4.35627       -0.12882
H          4.24702       -4.26974        0.95760
H          4.21173       -5.41916       -0.38751
H          4.90954       -3.80902       -0.62367
C          2.82439       -1.53150        1.57955
H          2.19744       -0.67012        1.86040
H          2.51915       -2.36243        2.23896
C          4.29706       -1.17654        1.79147
H          4.49128       -0.91960        2.84384
H          4.97203       -2.00507        1.52999
H          4.58789       -0.30589        1.18477
C          3.07084       -0.86730       -1.51829
H          2.41068       -0.96000       -2.39798
H          2.94649        0.16637       -1.15520
C          4.52264       -1.12307       -1.92793
H          4.65340       -2.12147       -2.37171
H          4.85021       -0.38942       -2.68010
H          5.21592       -1.04654       -1.07694
