100
6s_dinbu_dImes_auhsi.log	Energy: -1217133.1023533
C          2.35895       -1.93451        0.26308
C          3.52474       -0.97373        0.52876
C          3.25044        0.35383       -0.17956
C          0.84321        0.01446        0.08257
H          2.32130       -2.70664        1.04676
H          3.44828        0.25702       -1.25875
N          1.88083        0.83912       -0.02441
N          1.03969       -1.29789        0.20804
H          3.92894        1.13244        0.19651
H          2.51613       -2.46375       -0.68872
C          1.64840        2.22432       -0.34325
C          1.74124        3.19577        0.66600
C          1.36250        2.57316       -1.67534
C          1.53226        4.53045        0.31430
C          1.16081        3.92207       -1.97342
C          1.24431        4.91768       -0.99697
H          1.59731        5.29331        1.09494
H          0.93521        4.20301       -3.00583
C         -0.08291       -2.18751        0.05569
C         -0.34214       -2.71688       -1.22332
C         -0.88680       -2.52161        1.15820
C         -1.42019       -3.59080       -1.37301
C         -1.96114       -3.39196        0.94944
C         -2.24607       -3.94071       -0.30146
H         -1.62979       -3.99880       -2.36598
H         -2.59593       -3.64944        1.80158
C          1.23092        1.53811       -2.75478
H          2.06580        0.82201       -2.75600
H          0.30281        0.95431       -2.63398
H          1.19739        2.01051       -3.74485
C          2.02304        2.82438        2.09009
H          1.20023        2.22794        2.51542
H          2.93913        2.22345        2.18852
H          2.14138        3.72149        2.71094
C          1.06400        6.36347       -1.35095
H          2.03561        6.82743       -1.58828
H          0.41872        6.48749       -2.23177
H          0.62688        6.93193       -0.51798
C         -0.63086       -1.98476        2.53422
H          0.19041       -2.53012        3.02492
H         -0.35333       -0.92182        2.52399
H         -1.51900       -2.10513        3.16876
C          0.49580       -2.36743       -2.41885
H          0.91200       -1.35369       -2.35453
H          1.33958       -3.06741       -2.53675
H         -0.09943       -2.43023       -3.33986
C         -3.41811       -4.85373       -0.50486
H         -3.91155       -5.09889        0.44521
H         -4.16780       -4.38955       -1.16600
H         -3.11050       -5.79647       -0.98209
C          4.81168       -1.60127       -0.05374
H          5.67375       -1.03439        0.33729
H          4.90402       -2.60844        0.38978
C          3.78255       -0.77128        2.03797
H          4.35893       -1.64144        2.39732
H          4.46584        0.08946        2.14440
C          4.94288       -1.71511       -1.56803
H          5.10339       -0.72007       -2.01742
H          4.00762       -2.09966       -2.01576
C          2.58887       -0.59141        2.96104
H          2.02579       -1.53511        3.01425
H          1.89033        0.15559        2.55720
C          6.09299       -2.62316       -1.98819
H          7.02641       -2.25917       -1.52467
H          5.92686       -3.63167       -1.57059
C          6.26734       -2.71130       -3.49490
H          7.09979       -3.37695       -3.76557
H          5.35926       -3.10205       -3.98185
H          6.47810       -1.72278       -3.93315
C          2.98345       -0.18052        4.37276
H          3.69642       -0.91705        4.78250
H          3.53616        0.77489        4.33102
C          1.79078       -0.04222        5.30461
H          1.07814        0.71244        4.93297
H          1.24334       -0.99372        5.39998
H          2.09820        0.26403        6.31506
Au        -1.04390        0.80064        0.04540
H         -2.49582        1.65619        0.03470
Si        -3.73563        0.58116       -0.17430
C         -4.95549        1.98087       -0.49216
H         -4.69869        2.81514        0.18271
H         -4.77569        2.35663       -1.51458
C         -6.42425        1.59720       -0.30334
H         -6.63290        1.29028        0.73286
H         -7.08328        2.44977       -0.52590
H         -6.73016        0.77012       -0.96132
C         -4.02053       -0.30138        1.46114
H         -3.05350       -0.69971        1.80689
H         -4.32071        0.45868        2.20333
C         -5.04782       -1.43215        1.39128
H         -5.18961       -1.89568        2.37947
H         -6.03504       -1.08257        1.05379
H         -4.72273       -2.22660        0.70276
C         -3.47518       -0.54005       -1.66198
H         -2.89445        0.02565       -2.41113
H         -2.82897       -1.37620       -1.34763
C         -4.76486       -1.06651       -2.29578
H         -5.38736       -0.25211       -2.69570
H         -4.53836       -1.74234       -3.13455
H         -5.38053       -1.63139       -1.57991
