118
6s_dinbu_dIdipp_auhsi.log	Energy: -1364874.8987393
C          3.03683        0.27806        0.78431
C          3.53202        0.46440       -0.66578
C          2.40784        0.43801       -1.72369
C          0.70165       -0.02067        0.01096
H          3.27024        1.17240        1.38183
H          2.62673       -0.32880       -2.48238
N          1.05012        0.18173       -1.25284
N          1.61672        0.00933        0.97090
H          2.37890        1.39348       -2.26849
H          3.58235       -0.54888        1.26368
C          0.05911        0.15851       -2.29299
C         -0.50887        1.37760       -2.70774
C         -0.26133       -1.06662       -2.90668
C         -1.40277        1.34879       -3.78204
C         -1.16534       -1.04207       -3.97322
C         -1.72150        0.15272       -4.41650
H         -1.85930        2.27976       -4.12603
H         -1.43398       -1.97747       -4.46950
C          1.20562       -0.17963        2.33613
C          1.19721       -1.48091        2.87093
C          0.84460        0.95037        3.09310
C          0.81867       -1.62946        4.20816
C          0.47583        0.74736        4.42561
C          0.46662       -0.52797        4.98052
H          0.79912       -2.62725        4.65263
H          0.18846        1.60395        5.03988
C          0.31990       -2.38511       -2.43864
H          0.99460       -2.17176       -1.59595
C         -0.21350        2.68532       -2.00209
H          0.54097        2.48435       -1.22699
C          0.81459        2.34514        2.50102
H          1.12003        2.26791        1.44653
C          1.55466       -2.69810        2.04286
H          1.79926       -2.34930        1.02858
C          4.55048       -0.64679       -0.99882
H          4.95505       -0.44534       -2.00606
H          5.40787       -0.54290       -0.31133
C          4.27575        1.81483       -0.75896
H          5.12350        1.78227       -0.05252
H          4.73216        1.88626       -1.76154
C          4.03623       -2.07613       -0.94307
H          3.16122       -2.19331       -1.60542
H          3.67613       -2.30990        0.07282
C          3.45413        3.06737       -0.49430
H          2.95798        2.99995        0.48938
H          2.63984        3.15327       -1.23355
C          5.08462       -3.10945       -1.33550
H          5.44240       -2.89302       -2.35711
H          5.96625       -2.99781       -0.68076
C          4.56867       -4.53693       -1.26316
H          5.34266       -5.26241       -1.55243
H          4.24029       -4.79288       -0.24294
H          3.70793       -4.68614       -1.93483
C          4.27772        4.34843       -0.53336
H          5.08811        4.28166        0.21311
H          4.77994        4.42775       -1.51309
C          3.44579        5.59441       -0.27909
H          2.65122        5.70638       -1.03450
H          2.95972        5.55602        0.70928
H          4.06073        6.50546       -0.30944
C         -1.45962        3.19869       -1.28146
H         -2.26870        3.43171       -1.99123
H         -1.83805        2.44600       -0.57357
H         -1.23414        4.11533       -0.71557
C          0.36350        3.73562       -2.94906
H          1.26503        3.36761       -3.46217
H         -0.36190        4.02585       -3.72449
H          0.63521        4.64665       -2.39449
C         -0.77419       -3.31299       -1.91050
H         -1.34853       -2.82834       -1.10469
H         -1.48239       -3.59663       -2.70427
H         -0.33645       -4.23817       -1.50628
C          1.14718       -3.05863       -3.53298
H          0.52440       -3.33727       -4.39688
H          1.94654       -2.39818       -3.90194
H          1.61525       -3.97883       -3.15170
C          0.36616       -3.64998        1.91026
H          0.61822       -4.49362        1.24965
H          0.06896       -4.06641        2.88500
H         -0.50973       -3.13390        1.48592
C          2.78749       -3.41302        2.59491
H          3.07103       -4.25371        1.94356
H          3.65054       -2.73407        2.67038
H          2.60051       -3.82110        3.60005
C         -0.60356        2.91479        2.50962
H         -1.30072        2.24381        1.98495
H         -0.97830        3.05121        3.53579
H         -0.63154        3.89569        2.01101
C          1.80101        3.28034        3.19938
H          2.82595        2.87976        3.17658
H          1.80991        4.26725        2.71186
H          1.53151        3.43474        4.25548
H          0.17882       -0.66515        6.02525
H         -2.41615        0.15091       -5.25954
Au        -1.22922       -0.45021        0.53333
H         -2.69148       -1.00840        1.15112
Si        -3.95852       -0.28351        0.39282
C         -3.82707       -0.22897       -1.48297
H         -2.81273        0.08684       -1.77304
H         -3.93189       -1.26320       -1.85392
C         -4.85136        0.69483       -2.14259
H         -4.71729        1.73965       -1.82219
H         -4.73862        0.67538       -3.23724
H         -5.88933        0.40870       -1.91485
C         -4.18109        1.37851        1.24446
H         -3.75520        1.28737        2.25826
H         -3.55920        2.12626        0.72502
C         -5.63220        1.85612        1.32925
H         -5.69407        2.83487        1.82817
H         -6.09301        1.96793        0.33628
H         -6.25645        1.15817        1.90727
C         -5.14638       -1.61221        1.00019
H         -4.65651       -2.58925        0.84657
H         -5.25601       -1.50062        2.09285
C         -6.51181       -1.60254        0.31109
H         -6.42118       -1.77492       -0.77237
H         -7.15868       -2.39748        0.71164
H         -7.04405       -0.64984        0.45100
