62
6s_dih_dIterbutyl_auhsi.log	Energy: -779911.2450426
C         -3.80252       -0.40031       -1.22798
C         -3.11467        1.94340       -1.09525
C         -1.80363        0.21855        0.03591
H         -3.94276       -1.25926       -1.89600
H         -3.99941        2.27466       -0.52777
N         -2.04860        1.51795       -0.18665
N         -2.70487       -0.71180       -0.31122
H         -2.75190        2.80766       -1.66578
H         -4.74463       -0.26056       -0.67351
C         -3.47093        0.82465       -2.03565
H         -4.32819        1.11157       -2.65994
H         -2.62431        0.61445       -2.70974
C         -2.62103       -2.14766        0.14482
C         -1.71927       -2.93310       -0.80487
H         -0.68988       -2.54003       -0.78896
H         -1.68334       -3.99275       -0.51346
H         -2.09054       -2.87940       -1.83972
C         -4.02782       -2.76387        0.13984
H         -3.95975       -3.77014        0.57388
H         -4.72729       -2.18412        0.75912
H         -4.45531       -2.88298       -0.86334
C         -1.21695        2.62884        0.40109
C         -0.75578        2.29307        1.82126
H         -0.30559        3.18986        2.26878
H         -1.60660        1.98697        2.44723
H          0.00274        1.49805        1.86915
C         -0.03861        2.91770       -0.52587
H         -0.38413        3.20611       -1.53037
H          0.57355        3.74176       -0.13129
H          0.60313        2.02974       -0.62758
C         -2.13848       -2.23996        1.59450
H         -2.73653       -1.58959        2.24930
H         -2.25087       -3.27615        1.94163
H         -1.07768       -1.97857        1.73091
C         -2.08346        3.88953        0.53977
H         -1.49199        4.65507        1.05925
H         -2.38874        4.32533       -0.41941
H         -2.98101        3.69795        1.14536
Au         0.12377       -0.40431        0.50183
H          1.61647       -1.08295        0.86218
Si         2.80274       -0.36373       -0.04019
C          4.01306       -1.74564        0.37387
H          3.82675       -2.05857        1.41536
H          3.75933       -2.61905       -0.25178
C          5.48479       -1.36204        0.20640
H          5.76554       -0.52943        0.86936
H          6.13923       -2.20959        0.45905
H          5.72619       -1.06141       -0.82381
C          3.23850        1.26634        0.79248
H          2.31260        1.81312        1.03067
H          3.69894        1.02162        1.76558
C          4.16618        2.15372       -0.03938
H          4.41819        3.07706        0.50322
H          5.11527        1.65269       -0.28264
H          3.69771        2.45210       -0.99015
C          2.39855       -0.26323       -1.87874
H          1.72414       -1.10214       -2.12224
H          1.81448        0.65361       -2.06498
C          3.63063       -0.30895       -2.78663
H          4.18342       -1.25334       -2.67340
H          3.33795       -0.22945       -3.84418
H          4.33147        0.51357       -2.58024
