76
6s_diet_dIphme_auhsi.log	Energy: -1020129.8768342
C          2.12017       -2.83383       -0.29882
C          3.47027       -2.33967        0.22015
C          3.68252       -0.91174       -0.27340
C          1.25899       -0.52799       -0.09344
H          1.80850       -3.72840        0.26074
H          3.95139       -0.90114       -1.34196
N          2.50460       -0.06133       -0.10568
N          1.04836       -1.84136       -0.16890
H          4.51591       -0.44228        0.26904
H          2.19769       -3.12714       -1.35799
C          2.73178        1.35266       -0.12686
C          3.25247        1.99198        0.99807
C          2.44754        2.08795       -1.27763
C          3.47238        3.36483        0.96986
C          2.66736        3.46304       -1.29125
C          3.18465        4.12587       -0.17205
H          3.87098        3.86013        1.85887
H          2.43674        4.03247       -2.19503
C         -0.28600       -2.35801       -0.15192
C         -0.81352       -2.95387       -1.29811
C         -1.04906       -2.30574        1.01448
C         -2.10253       -3.47717       -1.27592
C         -2.33947       -2.82965        1.02333
C         -2.89283       -3.41895       -0.11936
H         -2.50835       -3.93458       -2.18184
H         -2.92652       -2.78651        1.94398
C          3.45444        5.60032       -0.19940
H          4.51508        5.79562       -0.42827
H          2.85383        6.10818       -0.96634
H          3.24150        6.06714        0.77293
C         -4.29702       -3.94408       -0.12078
H         -4.67539       -4.09260        0.89970
H         -4.97553       -3.23829       -0.62846
H         -4.36866       -4.90143       -0.65695
C          4.58558       -3.25213       -0.34066
H          5.52122       -2.98988        0.18093
H          4.35164       -4.27992       -0.01508
C          3.56427       -2.43901        1.75901
H          3.62572       -3.51247        2.00651
H          4.54136       -2.01752        2.05014
C          4.83768       -3.24765       -1.84122
H          5.25002       -2.29375       -2.20216
H          5.57419       -4.02337       -2.09524
H          3.93331       -3.46783       -2.42982
C          2.47519       -1.81544        2.61885
H          1.49598       -2.28385        2.44520
H          2.71514       -1.96519        3.68151
H          2.36711       -0.73309        2.45915
H         -0.21860       -2.99636       -2.21306
H         -0.62791       -1.85619        1.91590
H          3.47310        1.41519        1.89918
H          2.05427        1.57900       -2.16090
Au        -0.30084        0.79668        0.01848
H         -1.43062        2.04159        0.09350
Si        -2.94772        1.38161        0.02901
C         -3.71413        3.07016       -0.30335
H         -3.15858        3.81778        0.28811
H         -3.52323        3.32298       -1.36095
C         -5.20676        3.16325        0.01819
H         -5.40281        2.98493        1.08647
H         -5.59633        4.16476       -0.21818
H         -5.80565        2.43881       -0.55367
C         -3.34589        0.71089        1.74083
H         -2.51663        0.05863        2.05885
H         -3.34528        1.56403        2.44131
C         -4.66755       -0.05503        1.81745
H         -4.86012       -0.40700        2.84233
H         -5.52775        0.56388        1.52141
H         -4.65798       -0.94060        1.16386
C         -3.17088        0.16441       -1.38819
H         -2.51502        0.48626       -2.21533
H         -2.78340       -0.81404       -1.06083
C         -4.60998        0.03080       -1.89191
H         -4.98767        0.97601       -2.30979
H         -4.67241       -0.72342       -2.69115
H         -5.30444       -0.27887       -1.09659
