94
6s_dih_dIdipp_auhsi.log	Energy: -1167885.4714632
C          1.04273        0.94979        0.28388
C          3.28398        1.77004        0.87914
H          4.25679        1.54905        0.41830
H          3.42150        1.70526        1.97295
C          2.77297        3.13352        0.46686
H          2.82615        3.23310       -0.62936
H          3.40536        3.92267        0.89626
C          1.34196        3.30659        0.92666
H          1.28386        3.42179        2.02327
H          0.88626        4.20372        0.48477
C          2.87922       -0.58038        0.21774
C          2.87719       -1.50924        1.27336
C          3.40840       -2.77710        1.01858
H          3.42320       -3.52350        1.81612
C          3.92003       -3.10187       -0.23295
C          3.91191       -2.16262       -1.25914
H          4.31490       -2.43148       -2.23824
C          3.39620       -0.88021       -1.05590
C          2.32122       -1.17946        2.64425
H          1.90480       -0.16068        2.60189
C          3.37495        0.12381       -2.19151
H          3.00452        1.07857       -1.78720
C         -0.87826        2.39476        0.38399
C         -1.38106        2.80368       -0.86503
C         -2.74404        3.10294       -0.94848
H         -3.16557        3.42306       -1.90413
C         -3.56965        3.00638        0.16666
C         -3.05048        2.58727        1.38692
H         -3.71083        2.50348        2.25308
C         -1.69460        2.27328        1.52274
C         -0.50400        2.91057       -2.09638
H          0.52070        2.63534       -1.80293
C         -1.15736        1.78851        2.85425
H         -0.06855        1.66138        2.75116
N          2.34668        0.73418        0.44985
N          0.53144        2.15728        0.52004
H         -4.62979        3.25597        0.08257
H          4.33193       -4.09781       -0.41054
C          4.77206        0.37703       -2.75627
H          4.73989        1.16019       -3.52876
H          5.47390        0.69864       -1.97195
H          5.19010       -0.52765       -3.22345
C          2.39549       -0.30834       -3.28340
H          2.70440       -1.25951       -3.74378
H          1.38189       -0.44932       -2.87501
H          2.34065        0.44868       -4.08069
C          3.42173       -1.18443        3.70569
H          3.86617       -2.18560        3.81604
H          4.23529       -0.48971        3.44770
H          3.01739       -0.89058        4.68635
C          1.17369       -2.11617        3.01910
H          0.38014       -2.09535        2.25669
H          1.51690       -3.15753        3.11688
H          0.73060       -1.82180        3.98250
C         -1.73374        0.41464        3.19523
H         -1.31097        0.03475        4.13759
H         -2.82819        0.45533        3.31009
H         -1.50353       -0.31206        2.40155
C         -1.40041        2.79925        3.97362
H         -0.94362        2.45244        4.91283
H         -0.97404        3.78358        3.72818
H         -2.47510        2.94216        4.16420
C         -0.46040        4.33972       -2.63695
H         -1.45202        4.67102       -2.98161
H         -0.12237        5.05333       -1.87027
H          0.22705        4.40845       -3.49362
C         -0.94492        1.91561       -3.17031
H         -0.95080        0.88608       -2.77770
H         -1.95845        2.14084       -3.53660
H         -0.26298        1.94666       -4.03339
Au        -0.11517       -0.59021       -0.39988
H         -0.83131       -1.91794       -1.14526
Si        -2.38535       -2.11101       -0.63829
C         -3.40247       -0.52913       -0.59387
H         -2.81061        0.27758       -0.13381
H         -3.57276       -0.21291       -1.63751
C         -4.72654       -0.67419        0.15691
H         -4.56370       -0.93007        1.21534
H         -5.28653        0.27300        0.13590
H         -5.37711       -1.44924       -0.27565
C         -2.27140       -3.04887        0.98756
H         -1.32082       -3.60897        0.97910
H         -2.18116       -2.31711        1.80743
C         -3.43746       -4.00473        1.24745
H         -3.31843       -4.51413        2.21541
H         -4.40628       -3.48372        1.27121
H         -3.50081       -4.78650        0.47569
C         -2.79227       -3.19895       -2.11977
H         -2.36689       -2.71277       -3.01463
H         -2.24519       -4.15097       -2.00718
C         -4.28697       -3.44951       -2.32639
H         -4.83584       -2.51115       -2.49937
H         -4.45902       -4.09096       -3.20369
H         -4.75047       -3.94964       -1.46296
