100
6s_dime_dIdipp_auhsi.log	Energy: -1217136.0992506
C          1.95441        2.83112        0.42906
C          3.27112        2.38355       -0.20421
C          3.51923        0.94118        0.23166
C          1.09456        0.56184        0.06910
H          1.63631        3.80153        0.02068
H          3.82361        0.90624        1.29241
C          3.21120        2.48234       -1.72897
H          3.05715        3.52479       -2.04534
H          4.15387        2.13290       -2.17557
H          2.39780        1.87837       -2.15430
C          4.40017        3.26259        0.32764
H          5.36867        2.94735       -0.08891
H          4.24310        4.31398        0.04338
H          4.47015        3.21348        1.42530
N          2.34028        0.09544        0.05249
N          0.87596        1.87116        0.19763
H          4.33874        0.49730       -0.35198
H          2.08159        2.96759        1.51758
C          2.56707       -1.32382       -0.02827
C          2.68228       -1.92859       -1.29435
C          2.69338       -2.05428        1.16801
C          2.95204       -3.29911       -1.33711
C          2.96749       -3.42122        1.06891
C          3.10221       -4.03850       -0.16940
H          3.04703       -3.79617       -2.30526
H          3.07448       -4.01442        1.97988
C         -0.47704        2.33981        0.33606
C         -1.09589        2.25191        1.59676
C         -1.12780        2.88393       -0.78876
C         -2.42854        2.66744        1.69497
C         -2.45666        3.28746       -0.63582
C         -3.10578        3.16881        0.58981
H         -2.93774        2.61380        2.65999
H         -2.99321        3.70705       -1.48837
C          2.51902       -1.42031        2.53367
H          2.22918       -0.36851        2.38286
C          2.50393       -1.15544       -2.58425
H          2.26009       -0.11886       -2.31563
C         -0.41742        3.01394       -2.12228
H          0.65464        3.10773       -1.90056
C         -0.35190        1.79799        2.83822
H          0.61979        1.38938        2.52024
C         -0.07511        2.99280        3.75429
H         -1.01343        3.42430        4.13588
H          0.52881        2.68557        4.62177
H          0.46302        3.79453        3.22654
C         -1.07563        0.68291        3.58634
H         -0.48933        0.36574        4.46126
H         -2.06126        1.00708        3.95371
H         -1.22589       -0.19506        2.94238
C         -0.82312        4.26340       -2.89806
H         -0.73770        5.17103       -2.28228
H         -0.17604        4.38666       -3.77924
H         -1.85793        4.20150       -3.26832
C         -0.58456        1.75883       -2.98036
H         -0.26807        0.85074       -2.44438
H         -1.63593        1.62200       -3.27644
H          0.01479        1.83724       -3.90059
C          1.32801       -1.69519       -3.39800
H          1.50809       -2.72668       -3.73775
H          0.40123       -1.69737       -2.80186
H          1.15808       -1.07526       -4.29144
C          3.79256       -1.12373       -3.40539
H          3.66303       -0.50552       -4.30688
H          4.63107       -0.70944       -2.82517
H          4.08573       -2.13278       -3.73391
C          1.38280       -2.08795        3.30794
H          0.44416       -2.06503        2.73312
H          1.61168       -3.14043        3.53398
H          1.21190       -1.57421        4.26580
C          3.82397       -1.43446        3.33023
H          4.15087       -2.46454        3.54005
H          4.63935       -0.93678        2.78375
H          3.69594       -0.92341        4.29667
H         -4.14486        3.49148        0.68768
H          3.32039       -5.10730       -0.22481
Au        -0.44873       -0.77575       -0.07578
H         -1.51360       -2.07049       -0.19645
Si        -3.08053       -1.56524       -0.24616
C         -3.40454       -0.18605       -1.48122
H         -2.68406        0.62550       -1.29301
H         -3.18238       -0.56803       -2.49254
C         -4.82402        0.37969       -1.40486
H         -5.02222        0.82988       -0.42039
H         -4.96746        1.17147       -2.15589
H         -5.59579       -0.38329       -1.58494
C         -3.59073       -1.16042        1.51510
H         -2.93838       -1.73234        2.19632
H         -3.35698       -0.09701        1.69210
C         -5.05768       -1.45644        1.83307
H         -5.29763       -1.17784        2.87025
H         -5.74707       -0.90104        1.17969
H         -5.28963       -2.52660        1.72395
C         -3.63915       -3.26180       -0.84347
H         -2.92762       -3.59176       -1.61986
H         -3.51487       -3.96954       -0.00522
C         -5.06592       -3.31427       -1.39167
H         -5.18344       -2.67243       -2.27793
H         -5.33010       -4.33789       -1.69684
H         -5.81214       -2.99413       -0.64927
