88
6s_dinbu_dIphme_auhsi.log	Energy: -1118625.3120078
C          2.46860       -1.85100        0.16125
C          3.38415       -0.83262        0.83732
C          3.33176        0.45218        0.01667
C          0.95478        0.02260       -0.38996
H          2.26269       -2.68540        0.84868
H          3.84549        0.32113       -0.94922
N          1.96120        0.88263       -0.25430
N          1.17978       -1.28308       -0.24211
H          3.84572        1.26685        0.54553
H          2.95078       -2.28476       -0.72977
C          1.73438        2.27909       -0.46340
C          1.90390        3.18126        0.58744
C          1.34304        2.74241       -1.72009
C          1.66849        4.53574        0.37843
C          1.10227        4.10027       -1.91376
C          1.26196        5.02161       -0.87223
H          1.79533        5.23363        1.20996
H          0.79297        4.45193       -2.90118
C          0.13449       -2.22158       -0.51787
C         -0.24575       -2.46431       -1.83918
C         -0.47515       -2.92807        0.51828
C         -1.23541       -3.40169       -2.11554
C         -1.46579       -3.86348        0.22964
C         -1.86451       -4.11844       -1.08825
H         -1.52311       -3.58491       -3.15396
H         -1.93782       -4.41168        1.04883
C          1.04027        6.48778       -1.09282
H          1.99181        6.99232       -1.32854
H          0.35489        6.67209       -1.93152
H          0.62893        6.97297       -0.19625
C         -2.94666       -5.10885       -1.39712
H         -3.18758       -5.73217       -0.52561
H         -3.87096       -4.59371       -1.70583
H         -2.65650       -5.77307       -2.22446
C          4.82464       -1.38859        0.84756
H          5.42553       -0.75540        1.52239
H          4.78633       -2.37721        1.33824
C          2.99630       -0.59865        2.31563
H          3.26899       -1.51776        2.86391
H          3.67057        0.18187        2.71020
C          5.56200       -1.52465       -0.47907
H          5.78285       -0.52924       -0.90131
H          4.93337       -2.03861       -1.22877
C          1.56246       -0.24084        2.69150
H          0.86737       -1.01247        2.32314
H          1.24811        0.69755        2.20769
C          6.87311       -2.28962       -0.33701
H          7.49806       -1.79373        0.42615
H          6.66093       -3.29754        0.06072
C          7.64590       -2.40227       -1.64032
H          8.58289       -2.96176       -1.50493
H          7.05732       -2.92359       -2.41217
H          7.90779       -1.40917       -2.03879
C          1.37075       -0.09843        4.19587
H          1.68985       -1.03000        4.69517
H          2.04580        0.68800        4.57648
C         -0.06402        0.22548        4.57928
H         -0.40113        1.16476        4.11134
H         -0.75434       -0.57021        4.25418
H         -0.17835        0.33701        5.66729
H          0.24566       -1.91881       -2.64794
H         -0.17743       -2.74740        1.55336
H          2.20687        2.82214        1.57367
H          1.23515        2.03627       -2.54668
Au        -0.95782        0.72656       -0.60333
H         -2.47044        1.44572       -0.73275
Si        -3.51993        0.40993        0.05790
C         -4.84165        1.75045        0.10321
H         -4.35635        2.68919        0.42113
H         -5.18346        1.92517       -0.93178
C         -6.02476        1.44092        1.02189
H         -5.70725        1.33020        2.07006
H         -6.76587        2.25374        0.99372
H         -6.54706        0.51597        0.73486
C         -2.98909       -0.12308        1.79094
H         -1.92831       -0.42159        1.77815
H         -3.04189        0.76499        2.44425
C         -3.83178       -1.26878        2.35436
H         -3.51371       -1.52011        3.37784
H         -4.90303       -1.02136        2.39999
H         -3.72628       -2.17992        1.74554
C         -3.88601       -0.98944       -1.13913
H         -3.72613       -0.59549       -2.15743
H         -3.11484       -1.76373       -0.99574
C         -5.28788       -1.59017       -1.02648
H         -6.07050       -0.84352       -1.22897
H         -5.42566       -2.40375       -1.75511
H         -5.48279       -2.01069       -0.02871
