68
6s_dime_dIrterbutyl_auhsi.log	Energy: -829163.2756776
C          3.58044       -0.58853        0.79053
C          3.38534        0.71854        1.53627
C          3.04608        1.75093        0.47714
C          1.56189        0.04089       -0.42898
H          3.71439       -1.39922        1.51888
H          3.92309        1.94389       -0.16212
C          2.26319        0.60138        2.57038
H          2.51466       -0.15688        3.32708
H          2.12094        1.55860        3.09430
H          1.29932        0.31854        2.12100
C          4.69130        1.10867        2.22229
H          4.58707        2.07177        2.74435
H          4.98063        0.35557        2.97066
H          5.51622        1.20243        1.49930
N          1.90102        1.33222       -0.33064
N          2.41970       -0.91044       -0.03837
H          2.78831        2.69776        0.96986
H          4.49615       -0.54505        0.17862
C          2.22017       -2.37322       -0.34140
C          1.10960        2.44938       -0.95664
C          1.36487       -3.00698        0.75345
H          0.36081       -2.55354        0.77950
H          1.24735       -4.08570        0.57559
H          1.82570       -2.87574        1.74437
C          3.58921       -3.06731       -0.39382
H          4.25751       -2.58647       -1.12269
H          4.09829       -3.11479        0.57660
H          3.43510       -4.10436       -0.72012
C          0.48074        2.02287       -2.28477
H          0.08300        2.91433       -2.78894
H          1.22905        1.56023       -2.94453
H         -0.35820        1.31957       -2.17658
C          0.05375        2.93119        0.03542
H          0.51477        3.28242        0.97104
H         -0.52562        3.76469       -0.38778
H         -0.64384        2.11725        0.28310
C          2.06261        3.60289       -1.30426
H          1.49281        4.36878       -1.84696
H          2.49845        4.09652       -0.42717
H          2.87656        3.26574       -1.96239
C          1.60416       -2.57500       -1.72780
H          1.63998       -3.64361       -1.97998
H          0.54700       -2.27461       -1.79624
H          2.16667       -2.02045       -2.49287
Au        -0.43355       -0.48377       -0.67453
H         -2.00061       -1.06403       -0.82466
Si        -2.98594       -0.22988        0.21875
C         -3.46511        1.36727       -0.65243
H         -2.55998        1.83798       -1.06767
H         -4.08254        1.08927       -1.52440
C         -4.20561        2.36274        0.24199
H         -3.58159        2.69133        1.08760
H         -4.48924        3.26357       -0.32240
H         -5.13093        1.93886        0.66043
C         -2.29899       -0.03506        1.96503
H         -1.63749       -0.89506        2.16707
H         -1.64865        0.85537        1.99309
C         -3.37792        0.05294        3.04788
H         -2.92259        0.18553        4.04066
H         -4.06164        0.89975        2.88764
H         -3.98635       -0.86264        3.08983
C         -4.31104       -1.56212        0.09618
H         -4.30544       -1.95222       -0.93585
H         -4.00463       -2.40679        0.73757
C         -5.71831       -1.08282        0.45810
H         -6.05879       -0.27953       -0.21303
H         -6.44431       -1.90484        0.37067
H         -5.78094       -0.70258        1.48836
