70
6s_dime_dIphme_auhsi.log	Energy: -970886.6994354
C          3.53580        1.93401       -0.30394
C          2.94992        3.20437        0.30382
C          1.59201        3.41941       -0.35637
C          1.26648        0.98829       -0.19850
H          4.44904        1.63376        0.22944
H          1.71077        3.69208       -1.41945
C          2.78848        3.04728        1.81700
H          3.76546        2.88171        2.29532
H          2.35391        3.95770        2.25656
H          2.13651        2.20094        2.08181
C          3.86054        4.38544       -0.01673
H          3.44730        5.31965        0.39224
H          4.85723        4.24103        0.42650
H          3.98755        4.51671       -1.10238
N          0.75760        2.22007       -0.25935
N          2.58798        0.82235       -0.22286
H          1.05182        4.24427        0.12945
H          3.81549        2.09546       -1.35946
C         -0.65973        2.41036       -0.29576
C         -1.31596        2.97422        0.79946
C         -1.38336        2.06015       -1.43416
C         -2.69225        3.16690        0.75521
C         -2.76325        2.25116       -1.46402
C         -3.44337        2.80131       -0.37190
H         -3.19887        3.60156        1.62072
H         -3.32209        1.97461       -2.36143
C          3.13206       -0.50291       -0.20837
C          3.06581       -1.29653       -1.35286
C          3.73315       -0.99511        0.95000
C          3.58975       -2.58661       -1.32897
C          4.25725       -2.28309        0.95900
C          4.19667       -3.10210       -0.17754
H          3.52998       -3.20459       -2.22829
H          4.71845       -2.66599        1.87289
C         -4.93218        2.97664       -0.38847
H         -5.22103        3.98387       -0.05345
H         -5.34833        2.81783       -1.39236
H         -5.41712        2.25933        0.29395
C          4.79295       -4.47749       -0.16528
H          5.87573       -4.43143       -0.36767
H          4.66616       -4.96335        0.81266
H          4.34266       -5.12139       -0.93314
H          2.60286       -0.90028       -2.25956
H          3.77519       -0.37228        1.84679
H         -0.74695        3.24849        1.69093
H         -0.86017        1.64373       -2.29804
Au         0.05921       -0.65334        0.00956
H         -0.74466       -2.11370        0.23912
Si        -2.37580       -1.82503        0.23173
C         -2.72736       -3.58408        0.80617
H         -2.01309       -4.25582        0.30019
H         -2.48163       -3.64071        1.88100
C         -4.15747       -4.06255        0.54884
H         -4.39131       -4.08253       -0.52653
H         -4.30189       -5.08497        0.92893
H         -4.90840       -3.42521        1.03924
C         -2.91309       -1.50420       -1.54290
H         -2.25933       -0.72699       -1.97075
H         -2.71392       -2.42205       -2.12291
C         -4.37640       -1.08023       -1.67933
H         -4.64640       -0.93190       -2.73594
H         -5.06992       -1.83041       -1.27069
H         -4.56990       -0.13148       -1.15615
C         -2.87818       -0.51096        1.47931
H         -2.16656       -0.56072        2.32136
H         -2.72365        0.47632        1.01434
C         -4.31037       -0.64119        2.00258
H         -4.46257       -1.58395        2.54911
H         -4.54512        0.17748        2.69987
H         -5.05590       -0.60468        1.19413
