88
6s_diet_dImes_auhsi.log	Energy: -1118636.9244344
C         -3.55888       -0.99280        0.03320
C         -3.26801       -2.47079        0.31902
C         -1.89020       -2.83364       -0.23766
C         -1.12731       -0.53353        0.10045
H         -4.30669       -0.61128        0.74541
H         -1.94810       -2.97782       -1.32809
N         -0.85351       -1.83409        0.01830
N         -2.39047       -0.11328        0.10788
H         -1.55034       -3.78886        0.18725
H         -3.99855       -0.87893       -0.96896
C          0.50362       -2.26546       -0.19070
C          1.22522       -2.83344        0.87217
C          1.06046       -2.15471       -1.47634
C          2.52499       -3.27743        0.62404
C          2.36968       -2.60448       -1.66956
C          3.11973       -3.16964       -0.63679
H          3.09433       -3.71547        1.44865
H          2.81307       -2.51584       -2.66506
C         -2.64281        1.29700       -0.05764
C         -2.85395        1.78362       -1.36089
C         -2.65804        2.15736        1.05475
C         -3.09213        3.14932       -1.52680
C         -2.89366        3.51545        0.82981
C         -3.12247        4.03351       -0.44690
H         -3.24915        3.53470       -2.53814
H         -2.89595        4.19259        1.68843
C          0.30176       -1.54392       -2.61807
H         -0.69421       -1.99358       -2.74594
H          0.14906       -0.46255       -2.46548
H          0.84676       -1.67331       -3.56187
C          0.64669       -2.92378        2.25052
H          0.46611       -1.92003        2.66742
H         -0.31620       -3.45536        2.26319
H          1.33024       -3.45119        2.92793
C          4.52037       -3.65435       -0.86441
H          5.21525       -3.22390       -0.12684
H          4.57927       -4.74923       -0.75881
H          4.88221       -3.39508       -1.86849
C         -2.43288        1.67268        2.45600
H         -3.35694        1.25072        2.88254
H         -1.66050        0.89396        2.51186
H         -2.12935        2.50398        3.10582
C         -2.83273        0.88871       -2.56665
H         -2.17837        0.01765       -2.43223
H         -3.84223        0.51419       -2.80485
H         -2.48302        1.43936       -3.45057
C         -3.41145        5.49083       -0.64817
H         -4.49382        5.68450       -0.56699
H         -2.91212        6.11085        0.10960
H         -3.09234        5.83354       -1.64239
C         -4.33991       -3.32799       -0.39640
H         -4.24960       -4.36036       -0.01870
H         -5.32038       -2.97320       -0.03602
C         -3.38702       -2.80423        1.82322
H         -4.46249       -2.89392        2.05188
H         -2.97644       -3.81790        1.96863
C         -4.34549       -3.35410       -1.91794
H         -3.49242       -3.90674       -2.33886
H         -5.25328       -3.85848       -2.27880
H         -4.34554       -2.34628       -2.36328
C         -2.77485       -1.84746        2.82993
H         -3.29646       -0.88245        2.83577
H         -2.86180       -2.26244        3.84470
H         -1.71136       -1.65299        2.64461
Au         0.37732        0.84862        0.21311
H          1.45848        2.13214        0.35136
Si         2.99291        1.53828        0.15996
C          3.72785        3.22404        0.56904
H          3.09528        3.99368        0.09468
H          3.62375        3.37960        1.65708
C          5.18166        3.40739        0.13015
H          5.28806        3.32945       -0.96257
H          5.55572        4.40061        0.42053
H          5.85359        2.66263        0.58224
C          3.25120        1.03317       -1.63437
H          2.42833        0.36272       -1.92948
H          3.14820        1.93890       -2.25689
C          4.58988        0.33976       -1.89285
H          4.70243        0.08878       -2.95858
H          5.44948        0.96815       -1.61587
H          4.66811       -0.60073       -1.32710
C          3.38659        0.21162        1.43177
H          2.78391        0.42171        2.33226
H          3.01731       -0.74971        1.03787
C          4.86561        0.10465        1.80909
H          5.23682        1.02759        2.27939
H          5.02531       -0.71184        2.52974
H          5.50430       -0.10196        0.93721
