86
6s_dih_dIad_auhsi.log	Energy: -1070922.6362878
C          2.40484        3.13711        0.87085
C          0.07735        3.87968        0.74052
H          3.24244        2.93718        1.55178
H          0.25763        4.50171       -0.15266
N         -0.30139        2.52087        0.35531
N          1.93588        1.85533        0.33889
H         -0.75387        4.33210        1.28937
H          2.78843        3.77406        0.05856
C          3.01035        0.87350       -0.04941
C          2.62858        0.11667       -1.33433
C          4.32324        1.61891       -0.37875
C          3.29855       -0.10290        1.09869
H          2.46797        0.84836       -2.14379
H          1.67665       -0.42487       -1.21285
C          3.71227       -0.89378       -1.71474
H          4.68550        2.18834        0.48774
H          4.14996        2.33576       -1.19781
C          5.42570        0.62786       -0.77448
H          2.37279       -0.64087        1.37147
H          3.60903        0.46435        1.99285
C          4.38369       -1.10173        0.69035
H          3.37707       -1.44557       -2.60765
C          5.01184       -0.15233       -2.01935
C          3.92533       -1.86926       -0.55315
H          6.34130        1.20425       -0.98041
C          5.67615       -0.34350        0.38074
H          4.55295       -1.80453        1.52168
H          4.86908        0.53051       -2.87302
H          5.80414       -0.86261       -2.30558
H          2.98932       -2.41514       -0.33826
H          4.67738       -2.62572       -0.82899
H          6.47800       -1.05002        0.11266
H          6.01914        0.20273        1.27516
C         -1.73536        2.28040       -0.04097
C         -2.49467        1.49289        1.03394
C         -2.47980        3.61686       -0.24516
C         -1.78309        1.54365       -1.39047
H         -2.47678        2.05701        1.98161
H         -1.98050        0.53425        1.22836
C         -3.93589        1.23177        0.58516
H         -1.95762        4.23362       -0.99355
H         -2.51865        4.19126        0.69149
C         -3.92652        3.36984       -0.69211
H         -1.23782        0.58988       -1.32135
H         -1.25525        2.14945       -2.14592
C         -3.22601        1.27531       -1.81869
H         -4.44925        0.64324        1.36312
C         -4.65654        2.56617        0.38536
C         -3.93166        0.45622       -0.73530
H         -4.41331        4.34960       -0.81815
C         -3.94936        2.60593       -2.01439
H         -3.21482        0.71010       -2.76484
H         -4.68426        3.13029        1.33228
H         -5.70277        2.39338        0.08624
H         -3.42237       -0.51219       -0.60566
H         -4.96523        0.23062       -1.04374
H         -4.98889        2.43637       -2.33782
H         -3.45842        3.19370       -2.80739
C          1.30069        3.83382        1.61554
H          1.61448        4.85059        1.88914
H          1.06854        3.29522        2.54881
C          0.62741        1.55747        0.27509
Au         0.09045       -0.44450        0.46530
H         -0.02499       -2.04467        0.95374
Si        -1.24786       -2.90443        0.29795
C         -0.35386       -4.53397        0.60146
H          0.69516       -4.39921        0.28512
H         -0.31826       -4.69862        1.69244
C         -0.95924       -5.74419       -0.11123
H         -0.93074       -5.62814       -1.20533
H         -0.39968       -6.66017        0.13058
H         -2.00675       -5.91869        0.17650
C         -1.55379       -2.59145       -1.53571
H         -1.56261       -1.50918       -1.73920
H         -0.68197       -2.99116       -2.08245
C         -2.85169       -3.22051       -2.04889
H         -2.95956       -3.06263       -3.13243
H         -2.89073       -4.30575       -1.87323
H         -3.73540       -2.77589       -1.56636
C         -2.69664       -2.60915        1.45768
H         -2.26642       -2.40832        2.45416
H         -3.20818       -1.67870        1.16231
C         -3.69142       -3.76831        1.54364
H         -3.21232       -4.68900        1.90927
H         -4.50899       -3.53149        2.24075
H         -4.15014       -3.99792        0.57038
