92
6s_dime_dIad_auhsi.log	Energy: -1120174.5080939
C          2.82544        2.50385        0.51814
C          1.89307        3.37482        1.33852
C          0.66287        3.59997        0.47973
C          0.82109        1.21904       -0.01187
H          3.67632        2.21026        1.14573
H          0.91136        4.23680       -0.38519
C          1.52353        2.69288        2.65783
H          2.42244        2.52704        3.27040
H          0.83643        3.32582        3.23936
H          1.03553        1.71812        2.50913
C          2.56788        4.71555        1.61309
H          1.90118        5.37992        2.18330
H          3.48495        4.57814        2.20564
H          2.84163        5.22994        0.67895
N          0.08059        2.33345        0.04014
N          2.15785        1.28716        0.05788
H         -0.08763        4.13563        1.07346
H          3.22908        3.07284       -0.33513
C          3.04981        0.12237       -0.27839
C          2.52559       -0.63616       -1.51030
C          4.46037        0.62216       -0.66285
C          3.19160       -0.82042        0.92340
H          2.46734        0.06286       -2.36134
H          1.50189       -1.00903       -1.34559
C          3.42349       -1.83010       -1.83957
H          4.92731        1.17210        0.16499
H          4.39046        1.31174       -1.51979
C          5.37850       -0.55759       -1.00765
H          2.19349       -1.18269        1.22927
H          3.60152       -0.26148        1.78201
C          4.09391       -2.00474        0.56825
H          2.98617       -2.37025       -2.69454
C          4.82044       -1.33014       -2.19959
C          3.49646       -2.75858       -0.62340
H          6.37242       -0.15277       -1.25516
C          5.48690       -1.48683        0.20324
H          4.16142       -2.67601        1.43921
H          4.77515       -0.68336       -3.09121
H          5.48107       -2.17585       -2.44972
H          2.48865       -3.13228       -0.36929
H          4.11192       -3.64150       -0.85914
H          6.15851       -2.32954       -0.02651
H          5.92939       -0.95158        1.05987
C         -1.37395        2.34890       -0.33898
C         -2.24991        1.85494        0.81768
C         -1.82113        3.78201       -0.70074
C         -1.61198        1.49696       -1.59677
H         -2.08660        2.49390        1.70218
H         -1.93615        0.83433        1.10243
C         -3.72591        1.86443        0.40909
H         -1.20005        4.17133       -1.52344
H         -1.70156        4.46234        0.15313
C         -3.30087        3.80261       -1.10256
H         -1.28729        0.45913       -1.42630
H         -0.98633        1.88665       -2.41696
C         -3.09080        1.49837       -1.98759
H         -4.33209        1.48757        1.24916
C         -4.14844        3.29462        0.06596
C         -3.92454        0.96993       -0.81767
H         -3.57554        4.84361       -1.33435
C         -3.52535        2.92172       -2.32911
H         -3.22322        0.84372       -2.86437
H         -4.02286        3.94992        0.94383
H         -5.21691        3.32166       -0.20158
H         -3.63045       -0.06618       -0.58481
H         -4.99043        0.94096       -1.09567
H         -4.58678        2.94051       -2.62428
H         -2.94658        3.30201       -3.18680
Au        -0.05956       -0.63880        0.31137
H         -0.42508       -2.17184        0.88257
Si        -1.89905       -2.75307        0.49129
C         -1.37813       -4.50615        0.94417
H         -0.36891       -4.66960        0.52812
H         -1.25914       -4.54677        2.04099
C         -2.32244       -5.60724        0.45927
H         -2.38867       -5.63113       -0.63903
H         -1.96648       -6.59691        0.78250
H         -3.34349       -5.48586        0.85062
C         -2.32624       -2.58152       -1.33558
H         -2.12002       -1.55461       -1.67617
H         -1.62771       -3.22828       -1.89458
C         -3.77802       -2.94808       -1.65442
H         -3.96763       -2.88660       -2.73648
H         -4.03179       -3.97043       -1.33757
H         -4.48583       -2.26421       -1.16159
C         -3.10633       -1.99045        1.71310
H         -2.53348       -1.76352        2.62886
H         -3.44285       -1.01624        1.32346
C         -4.30628       -2.87635        2.05420
H         -3.99351       -3.82458        2.51655
H         -4.97354       -2.37299        2.76966
H         -4.90792       -3.12331        1.16675
