98
6s_diet_dIad_auhsi.log	Energy: -1169419.3792099
C          0.64545        3.23189        0.96166
C         -0.74418        3.42740        1.53610
C         -1.70978        3.01630        0.43802
C         -0.24966        1.20323       -0.12447
H          1.37264        3.15265        1.78493
H         -1.57177        3.66421       -0.44443
N         -1.50698        1.62915        0.03927
N          0.77684        2.03345        0.12477
H         -2.73373        3.15670        0.78919
H          0.92531        4.11322        0.37050
C         -0.95119        4.91939        1.87731
H         -1.86618        4.99656        2.48882
H         -0.12720        5.21636        2.54878
C         -0.96265        2.64216        2.85215
H         -0.52776        3.26024        3.65580
H         -2.04748        2.62599        3.05629
C         -1.04356        5.90693        0.72360
H         -1.95893        5.77571        0.12776
H         -1.06218        6.93567        1.11112
H         -0.18450        5.84265        0.03678
C         -0.39749        1.23614        3.00411
H          0.68491        1.20147        2.80899
H         -0.54606        0.89087        4.03800
H         -0.88056        0.50516        2.34476
C          2.18376        1.71039       -0.30768
C          2.20784        1.24454       -1.77393
C          3.07726        2.96952       -0.25091
C          2.81344        0.65758        0.61590
H          1.78486        2.04291       -2.40625
H          1.56632        0.35985       -1.92046
C          3.63010        0.89201       -2.21251
H          3.12430        3.37474        0.76914
H          2.66012        3.75441       -0.90228
C          4.50910        2.64221       -0.69447
H          2.18935       -0.25349        0.62285
H          2.82895        1.04083        1.65042
C          4.23088        0.31544        0.15124
H          3.59517        0.52007       -3.24886
C          4.50904        2.13834       -2.13543
C          4.18677       -0.19697       -1.29132
H          5.10534        3.56525       -0.62038
C          5.09954        1.57232        0.22553
H          4.64510       -0.46393        0.81188
H          4.12629        2.91688       -2.81565
H          5.53651        1.90660       -2.45911
H          3.55865       -1.10193       -1.35379
H          5.19751       -0.48889       -1.61865
H          6.13320        1.34125       -0.07799
H          5.14660        1.94108        1.26378
C         -2.70404        0.79509       -0.34288
C         -2.57823        0.33818       -1.80724
C         -2.86709       -0.40485        0.60272
C         -4.01119        1.60638       -0.24703
H         -1.64190       -0.22461       -1.96183
H         -2.51468        1.23009       -2.45280
C         -3.76111       -0.54288       -2.20803
H         -3.01632       -0.03434        1.63043
H         -1.94437       -1.00983        0.61478
C         -4.04702       -1.27812        0.17063
H         -3.95741        2.50046       -0.88821
H         -4.17888        1.94319        0.78820
C         -5.21541        0.75084       -0.66674
H         -3.61250       -0.88453       -3.24473
C         -3.83352       -1.75148       -1.26995
C         -5.04821        0.27453       -2.10842
H         -4.10954       -2.14802        0.84458
C         -5.33459       -0.45847        0.26066
H         -6.11840        1.37557       -0.58176
H         -2.90266       -2.34185       -1.34254
H         -4.65628       -2.41802       -1.57428
H         -5.00536        1.13453       -2.79688
H         -5.91658       -0.33325       -2.40940
H         -6.20235       -1.07300       -0.02797
H         -5.50529       -0.13198        1.29997
Au         0.12165       -0.80820       -0.52835
H          0.36605       -2.40335       -0.97061
Si         0.70497       -3.29306        0.39088
C          2.56047       -3.52667        0.19951
H          2.80043       -3.39790       -0.86946
H          3.06466       -2.69423        0.72060
C          3.09194       -4.87502        0.68906
H          2.64622       -5.71196        0.13058
H          4.18180       -4.93962        0.55283
H          2.88710       -5.04397        1.75653
C         -0.34329       -4.73952       -0.19971
H         -1.32772       -4.32873       -0.48509
H          0.10221       -5.11960       -1.13559
C         -0.52466       -5.87003        0.81341
H         -1.13762       -6.68019        0.39097
H          0.43433       -6.31463        1.11878
H         -1.03359       -5.52148        1.72502
C          0.17898       -2.67359        2.09659
H          0.40562       -1.59985        2.19698
H         -0.91951       -2.75785        2.16126
C          0.85053       -3.44470        3.23685
H          1.94246       -3.30811        3.22916
H          0.48577       -3.08942        4.21234
H          0.65138       -4.52548        3.18910
