110
6s_dinbu_dIad_auhsi.log	Energy: -1267915.9279240
C          2.81414       -1.15199        0.70532
C          3.19725        0.19441        1.28699
C          2.95296        1.20060        0.17471
C          0.93036        0.03603       -0.35679
H          2.63574       -1.86865        1.52263
H          3.57608        0.95130       -0.70100
N          1.55215        1.21249       -0.22626
N          1.60527       -1.10334       -0.12512
H          3.24999        2.19420        0.51545
H          3.64772       -1.54436        0.10836
C          4.69404        0.18513        1.66016
H          4.89004        1.07314        2.28584
H          4.86174       -0.68070        2.32539
C          2.41814        0.53541        2.58147
H          2.96661        0.05700        3.41181
H          2.51809        1.62122        2.75948
C          5.71711        0.14964        0.53189
H          5.68581        1.09083       -0.04367
H          5.47740       -0.65273       -0.18975
C          0.95407        0.13566        2.73084
H          0.83258       -0.94171        2.52805
H          0.32335        0.65368        1.99393
C          7.13848       -0.06107        1.04041
H          7.37803        0.72635        1.77630
H          7.18419       -1.01297        1.59807
C          8.17843       -0.06282       -0.06737
H          9.19115       -0.22082        0.33119
H          7.98243       -0.86175       -0.80040
H          8.18338        0.89332       -0.61462
C          0.40561        0.43089        4.12061
H          1.01720       -0.09118        4.87681
H          0.52029        1.50764        4.33724
C         -1.05249        0.03013        4.27404
H         -1.69036        0.56690        3.55320
H         -1.19025       -1.04934        4.09802
H         -1.43392        0.25187        5.28140
C          1.07130       -2.44542       -0.54504
C          0.52509       -2.39117       -1.98252
C          2.19890       -3.50075       -0.56363
C         -0.00302       -2.93167        0.43511
H          1.33776       -2.07795       -2.65897
H         -0.26863       -1.63250       -2.08003
C         -0.04664       -3.74636       -2.40131
H          2.65105       -3.61288        0.43124
H          2.99522       -3.18592       -1.25769
C          1.65169       -4.87005       -0.98892
H         -0.81081       -2.18342        0.49579
H          0.43163       -3.01071        1.44603
C         -0.56452       -4.28321       -0.00917
H         -0.46851       -3.65101       -3.41451
C          1.06879       -4.78930       -2.39754
C         -1.14843       -4.15530       -1.41914
H          2.48565       -5.58919       -0.96942
C          0.56417       -5.31615       -0.00940
H         -1.35349       -4.59204        0.69617
H          1.85092       -4.51145       -3.12306
H          0.67943       -5.77272       -2.70661
H         -1.95962       -3.40551       -1.42994
H         -1.59721       -5.11198       -1.73103
H          0.17735       -6.30602       -0.30027
H          0.98098       -5.42225        1.00607
C          0.91592        2.51960       -0.62175
C         -0.20578        2.90245        0.35227
C          1.93534        3.67518       -0.59630
C          0.38877        2.42836       -2.06483
H          0.21502        3.00556        1.36656
H         -0.95109        2.09186        0.39651
C         -0.88667        4.19952       -0.08739
H          2.78646        3.45294       -1.25954
H          2.32988        3.81807        0.42181
C          1.27464        4.99156       -1.03052
H         -0.32665        1.59497       -2.16491
H          1.23232        2.19794       -2.73685
C         -0.29894        3.72954       -2.47755
H         -1.70827        4.42328        0.61248
C          0.13739        5.33492       -0.06782
C         -1.44289        4.02851       -1.50391
H          2.04180        5.78102       -0.99664
C          0.72299        4.86498       -2.44916
H         -0.69930        3.61011       -3.49692
H          0.52740        5.47731        0.95375
H         -0.33624        6.28454       -0.36431
H         -2.18158        3.20757       -1.52576
H         -1.97446        4.94248       -1.81380
H          0.25617        5.81347       -2.75990
H          1.53752        4.65991       -3.16325
Au        -1.13389       -0.03644       -0.64656
H         -2.76587       -0.09057       -1.04175
Si        -3.75381       -0.14549        0.26892
C         -3.63417        1.44439        1.26680
H         -2.58512        1.58723        1.57101
H         -3.87117        2.28612        0.59294
C         -4.52892        1.46852        2.50861
H         -4.24195        0.68682        3.22815
H         -4.44481        2.43354        3.03048
H         -5.59116        1.32124        2.26604
C         -3.47268       -1.71866        1.26011
H         -3.10572       -2.49221        0.56505
H         -2.65046       -1.53353        1.97171
C         -4.71621       -2.23158        1.99025
H         -4.48260       -3.13807        2.56853
H         -5.12284       -1.49217        2.69597
H         -5.52020       -2.49457        1.28665
C         -5.26134       -0.22564       -0.85983
H         -5.08174        0.45879       -1.70655
H         -5.28508       -1.23922       -1.29773
C         -6.59936        0.11096       -0.20010
H         -6.62545        1.15243        0.15403
H         -7.42658       -0.00685       -0.91598
H         -6.81957       -0.53789        0.66056
