67
7s_dIphme_auhsi.log	Energy: -946251.7249518
N          0.57962        2.47574        0.01434
N          2.51808        1.25608       -0.41825
C          1.21242        1.30316       -0.13588
C          1.19323        3.78245        0.34021
H          0.45877        4.29573        0.97404
H          1.27913        4.39286       -0.57457
C          2.51582        3.68348        1.08074
H          2.41396        2.92639        1.87533
H          2.69088        4.63858        1.59764
C          3.69835        3.35355        0.17275
H          4.10093        4.26657       -0.29404
H          4.51875        2.91356        0.75997
C          3.27072        2.40623       -0.93067
H          2.63004        2.91826       -1.66444
H          4.13479        2.01451       -1.48198
C         -0.85163        2.47680       -0.05590
C         -1.48644        2.17062       -1.25848
C         -2.87832        2.16584       -1.33035
H         -3.36365        1.92509       -2.27935
C         -3.66280        2.47572       -0.21498
C         -3.00457        2.79680        0.98224
H         -3.59336        3.03888        1.87078
C         -1.61773        2.79666        1.06795
C         -5.16021        2.45100       -0.27979
H         -5.59044        3.40131        0.07089
H         -5.56748        1.65651        0.36640
H         -5.51935        2.27197       -1.30204
C          3.21712        0.01953       -0.25220
C          3.32250       -0.55458        1.01510
C          3.98443       -1.77005        1.17404
H          4.05922       -2.21098        2.17110
C          4.56361       -2.42782        0.08379
C          4.45167       -1.82968       -1.18035
H          4.88615       -2.32854       -2.05037
C          3.78792       -0.62124       -1.35389
C          5.30776       -3.71725        0.25818
H          5.03838       -4.21706        1.19853
H          6.39524       -3.53767        0.27845
H          5.11016       -4.41104       -0.57175
H         -0.88420        1.94355       -2.14104
H         -1.12857        3.02668        2.01735
H          3.69427       -0.18401       -2.35068
H          2.89134       -0.04114        1.87753
Au         0.19631       -0.47150        0.04174
H         -0.42158       -2.03160        0.20334
Si        -2.06767       -1.98132        0.08864
C         -2.19495       -3.82086        0.47404
H         -1.37214       -4.33459       -0.05188
H         -1.99102       -3.95317        1.55094
C         -3.53147       -4.45898        0.09100
H         -3.71424       -4.39836       -0.99272
H         -3.54746       -5.52549        0.36124
H         -4.38443       -3.98324        0.59779
C         -2.57083       -1.56307       -1.67644
H         -2.01073       -0.67056       -1.99899
H         -2.22911       -2.38791       -2.32554
C         -4.07124       -1.31977       -1.84788
H         -4.31795       -1.10870       -2.89953
H         -4.67460       -2.18771       -1.54229
H         -4.40845       -0.45695       -1.25359
C         -2.80145       -0.87842        1.42165
H         -2.12185       -0.91148        2.29066
H         -2.76948        0.16079        1.05598
C         -4.21954       -1.25358        1.85669
H         -4.25834       -2.25886        2.30235
H         -4.59371       -0.54971        2.61575
H         -4.93159       -1.23749        1.01799
