97
7s_dIdipp_auhsi.log	Energy: -1192496.2810027
N          2.44157        0.23215       -0.45078
N          0.95293        1.95829        0.07601
C          1.21934        0.66524       -0.13848
C          3.63387        1.03632       -0.79422
H          4.25404        0.36888       -1.40590
H          4.22083        1.23379        0.11959
C          3.35055        2.31354       -1.56624
H          2.65449        2.07645       -2.38318
H          4.28587        2.62098       -2.05717
C          2.80516        3.46026       -0.71908
H          3.62720        4.05885       -0.29531
H          2.21687        4.14633       -1.34682
C          1.97249        2.95249        0.43941
H          2.62038        2.49451        1.20424
H          1.44433        3.77658        0.93499
C          2.71103       -1.18003       -0.29043
C          3.13583       -1.59471        0.99072
C          3.45689       -2.93974        1.18395
H          3.78514       -3.27820        2.16915
C          3.36967       -3.84841        0.13806
C          2.94716       -3.41828       -1.11208
H          2.87691       -4.13915       -1.93104
C          2.60321       -2.08415       -1.36974
C          3.23137       -0.64469        2.17040
H          2.96054        0.36298        1.82219
C          2.07117       -1.82404       -2.77707
H          2.63388       -2.53101       -3.40912
C         -0.42701        2.35426        0.18485
C         -1.11861        2.72573       -0.98241
C         -2.46597        3.08099       -0.85665
H         -3.02975        3.37020       -1.74662
C         -3.09556        3.07727        0.38241
C         -2.38407        2.72691        1.52596
H         -2.88421        2.74560        2.49708
C         -1.03641        2.36286        1.45583
C         -0.45309        2.76044       -2.34375
H          0.60505        2.50456       -2.19515
C         -0.27754        2.02429        2.72496
H          0.71459        1.64697        2.43371
C         -0.95425        0.91424        3.52544
H         -1.95373        1.21270        3.87668
H         -1.06731        0.00225        2.92060
H         -0.35565        0.66118        4.41288
C         -0.07137        3.27347        3.58466
H          0.53658        3.03781        4.47135
H          0.43419        4.07722        3.02900
H         -1.03437        3.67437        3.93691
C         -1.03746        1.71578       -3.29303
H         -2.10968        1.88940       -3.47512
H         -0.52521        1.75029       -4.26656
H         -0.92585        0.69957       -2.88805
C         -0.50207        4.16183       -2.95190
H         -0.07567        4.91318       -2.27016
H          0.06441        4.19271       -3.89508
H         -1.53438        4.47006       -3.17829
C          2.27753       -0.44972       -3.39752
H          1.63736        0.31267       -2.93509
H          3.32413       -0.11916       -3.34467
H          2.00673       -0.49249       -4.46290
C          0.59876       -2.23566       -2.87969
H          0.43419       -3.25479       -2.50069
H         -0.04020       -1.55318       -2.29341
H          0.25906       -2.19685       -3.92599
C          4.65416       -0.56528        2.72329
H          4.71302        0.17607        3.53474
H          4.98091       -1.53164        3.13654
H          5.37631       -0.27927        1.94364
C          2.22344       -1.02225        3.25562
H          2.44617       -2.01074        3.68559
H          2.24397       -0.28987        4.07732
H          1.20066       -1.05688        2.85054
Au        -0.26601       -0.72405        0.13314
H         -1.28043       -2.02407        0.47286
Si        -2.85701       -1.70372        0.14131
C         -3.20998       -3.50231       -0.28578
H         -2.40386       -3.84092       -0.95965
H         -3.09740       -4.09785        0.63696
C         -4.57147       -3.75626       -0.93389
H         -4.66916       -3.22605       -1.89352
H         -4.71391       -4.82758       -1.14057
H         -5.40596       -3.43598       -0.29225
C         -3.19648       -0.52274       -1.28379
H         -2.55816        0.36694       -1.16659
H         -2.87903       -1.01077       -2.22123
C         -4.65719       -0.07402       -1.36723
H         -4.80790        0.59175       -2.23082
H         -5.35577       -0.91636       -1.47978
H         -4.95414        0.48925       -0.46968
C         -3.55203       -1.13051        1.78824
H         -2.92301       -1.55680        2.58767
H         -3.40947       -0.03770        1.84248
C         -5.01601       -1.50501        2.02639
H         -5.15867       -2.59616        2.04080
H         -5.36662       -1.12095        2.99617
H         -5.68413       -1.09556        1.25415
H         -4.14729        3.36205        0.46064
H          3.63403       -4.89627        0.29549
