79
7s_dImes_auhsi.log	Energy: -1044762.9621064
N         -0.35233       -2.38628        0.07023
N         -2.39078       -1.26734       -0.17536
C         -1.06282       -1.26195       -0.04904
C         -0.84950       -3.73287        0.42362
H         -0.00801       -4.22152        0.93278
H         -1.03144       -4.32408       -0.48970
C         -2.06196       -3.71781        1.33816
H         -1.88549       -2.97058        2.12824
H         -2.12132       -4.69007        1.84956
C         -3.37365       -3.42832        0.61250
H         -3.79901       -4.35515        0.19541
H         -4.12190       -3.03870        1.31930
C         -3.17053       -2.45813       -0.53530
H         -2.65241       -2.95122       -1.37319
H         -4.13351       -2.10377       -0.92417
C          1.07750       -2.29467       -0.06523
C          1.64381       -2.38624       -1.34520
C          3.03665       -2.35912       -1.44901
H          3.49152       -2.43423       -2.44056
C          3.86049       -2.24742       -0.32511
C          3.25491       -2.13853        0.93072
H          3.88290       -2.03786        1.82055
C          1.86753       -2.16627        1.08830
C          0.78014       -2.48055       -2.56806
H          0.03782       -3.28888       -2.48731
H          1.38530       -2.66797       -3.46425
H          0.22089       -1.54424       -2.73106
C          5.35369       -2.27840       -0.45893
H          5.84588       -1.71457        0.34611
H          5.68371       -1.86657       -1.42278
H          5.72361       -3.31547       -0.40289
C          1.24082       -2.03600        2.44443
H          0.51119       -1.21040        2.46916
H          2.00091       -1.84223        3.21224
H          0.70136       -2.95007        2.73958
C         -3.07527       -0.00177       -0.14158
C         -3.40271        0.57015        1.09795
C         -4.06217        1.80092        1.09581
H         -4.32202        2.25858        2.05422
C         -4.39914        2.46003       -0.08976
C         -4.04591        1.86122       -1.30268
H         -4.28686        2.36910       -2.24061
C         -3.38572        0.63280       -1.35625
C         -3.03895       -0.10090        2.38997
H         -1.94706       -0.21003        2.49407
H         -3.47322       -1.10911        2.46313
H         -3.39954        0.48168        3.24725
C         -5.14270        3.76186       -0.06283
H         -6.23051        3.58632       -0.10132
H         -4.88441        4.39317       -0.92468
H         -4.93574        4.32769        0.85621
C         -2.99822        0.02545       -2.67222
H         -3.14245        0.74208       -3.49091
H         -3.60055       -0.86636       -2.90828
H         -1.94222       -0.28763       -2.67604
Au        -0.12478        0.56064       -0.06931
H          0.40021        2.15793       -0.12442
Si         2.03775        2.19876        0.08038
C          2.02487        4.07896       -0.04529
H          1.31148        4.35783       -0.83953
H          1.59489        4.47137        0.89294
C          3.38648        4.71607       -0.32715
H          3.78808        4.39841       -1.30127
H          3.30663        5.81319       -0.35329
H          4.13509        4.46316        0.43839
C          2.91092        1.34700       -1.34934
H          2.50702        0.32518       -1.44288
H          2.63878        1.87526       -2.27957
C          4.42990        1.27490       -1.18415
H          4.89273        0.76919       -2.04515
H          4.89365        2.26916       -1.10327
H          4.70848        0.70313       -0.28632
C          2.50816        1.55827        1.78548
H          1.63935        1.69304        2.45221
H          2.66001        0.46976        1.69571
C          3.74137        2.22886        2.39448
H          3.58515        3.30727        2.54762
H          3.97932        1.79411        3.37708
H          4.63434        2.11122        1.76216
