89
7s_dIad_auhsi.log	Energy: -1095538.5961363
N         -0.20547        2.13156        0.06389
N          1.99103        1.33779       -0.05068
C          0.67263        1.11773        0.01447
C          0.09013        3.48463        0.57025
H         -0.78815        3.77320        1.15344
H          0.15075        4.19851       -0.26805
C          1.31579        3.60061        1.45958
H          1.32102        2.76610        2.17917
H          1.21508        4.51722        2.05942
C          2.60819        3.62999        0.65562
H          2.78327        4.63295        0.23428
H          3.47192        3.40341        1.29850
C          2.50019        2.63787       -0.48506
H          1.80921        3.01356       -1.25522
H          3.45749        2.48250       -0.98835
C         -1.61315        1.84376       -0.27538
C         -2.25340        2.78270       -1.31535
H         -1.54505        0.86835       -0.77868
C         -2.59247        1.64284        0.89706
C         -2.80006        4.08782       -0.71717
H         -1.51781        2.99731       -2.10841
C         -3.43845        2.00047       -1.90556
C         -3.77757        0.85945        0.30776
C         -3.14720        2.94463        1.49084
H         -2.09482        1.04122        1.67722
H         -3.29377        4.65810       -1.52082
H         -2.00028        4.73879       -0.33810
C         -3.81340        3.77707        0.38964
H         -3.08074        1.07404       -2.38677
H         -3.92213        2.59928       -2.69378
C         -4.45102        1.67734       -0.80017
H         -4.50545        0.63144        1.10367
H         -3.42876       -0.10506       -0.09264
H         -2.37531        3.52791        2.01601
H         -3.89110        2.68784        2.26292
H         -4.18758        4.71992        0.81877
C         -4.98052        2.98374       -0.20423
H         -5.28453        1.09607       -1.22657
H         -5.48738        3.57867       -0.98144
H         -5.73094        2.77032        0.57466
C          2.91548        0.21115        0.17459
C          4.13722        0.49056        1.06986
H          2.30465       -0.50173        0.74971
C          3.37134       -0.53070       -1.09398
C          5.29865        1.18091        0.33988
H          3.81979        1.08082        1.94535
C          4.63346       -0.88979        1.53496
C          3.86923       -1.90702       -0.62995
C          4.51258        0.18423       -1.82608
H          2.50183       -0.65436       -1.76264
H          6.14896        1.25936        1.03686
H          5.05925        2.21488        0.05228
C          5.71002        0.35604       -0.88387
H          3.84350       -1.40550        2.10685
H          5.48714       -0.76068        2.21934
C          5.05487       -1.73182        0.32467
H          4.17283       -2.50602       -1.50371
H          3.05051       -2.45721       -0.13414
H          4.18740        1.15422       -2.23450
H          4.80921       -0.42016       -2.69879
H          6.52503        0.87153       -1.41616
C          6.18999       -1.02166       -0.41835
H          5.39751       -2.72020        0.67028
H          7.06729       -0.91340        0.24019
H          6.51279       -1.62456       -1.28300
Au         0.03178       -0.84384       -0.01587
H         -0.17354       -2.52124       -0.08640
Si        -1.72857       -2.99482        0.08388
C         -1.25507       -4.81748        0.07321
H         -0.44842       -4.95212       -0.66757
H         -0.80483       -5.05328        1.05318
C         -2.40876       -5.77222       -0.24016
H         -2.81953       -5.59640       -1.24605
H         -2.06876       -6.81817       -0.20939
H         -3.23771       -5.67920        0.47730
C         -2.68877       -2.48333       -1.45318
H         -2.47329       -1.42648       -1.68259
H         -2.27015       -3.05838       -2.29764
C         -4.20010       -2.69703       -1.34963
H         -4.70046       -2.42442       -2.29090
H         -4.45926       -3.74458       -1.13567
H         -4.64444       -2.07935       -0.55416
C         -2.40339       -2.41572        1.74134
H         -1.55623       -2.40824        2.44910
H         -2.72658       -1.36646        1.64984
C         -3.53694       -3.28191        2.29609
H         -3.20960       -4.31781        2.47027
H         -3.89236       -2.88896        3.26033
H         -4.40386       -3.31759        1.61958
