65
7s_dIterbutyl_auhsi.log	Energy: -804528.6099538
N          1.93182        1.50499        0.06942
N          2.70446       -0.66819       -0.14497
C          1.68313        0.19365       -0.16440
C          2.83203        1.97816        1.14349
H          2.21933        2.63489        1.77959
H          3.62929        2.60749        0.71899
C          3.45262        0.90836        2.01987
H          2.67332        0.21683        2.37825
H          3.85636        1.40124        2.91644
C          4.54888        0.15758        1.28022
H          5.46682        0.76419        1.22479
H          4.81603       -0.76739        1.81289
C          1.05239        2.58683       -0.49720
C          0.62297        2.23935       -1.92460
H          1.49873        2.00862       -2.54910
H         -0.06545        1.38358       -1.97981
H          0.10582        3.10273       -2.36612
C          1.86801        3.88261       -0.60780
H          1.25974        4.62926       -1.13601
H          2.13366        4.31768        0.36389
H          2.78682        3.72847       -1.19293
C          2.51529       -2.16919       -0.18092
C          1.86558       -2.58123       -1.50363
H          1.79907       -3.67703       -1.55607
H          0.84491       -2.18577       -1.62527
H          2.46811       -2.23103       -2.35446
C          3.86194       -2.89537       -0.10148
H          4.44435       -2.62150        0.78827
H          3.65314       -3.97134       -0.03060
H          4.48028       -2.75208       -0.99815
C          1.69957       -2.61187        1.03610
H          0.69715       -2.15732        1.05657
H          1.56988       -3.70319        1.02063
H          2.21602       -2.34232        1.96951
C         -0.15432        2.82622        0.40971
H         -0.78698        3.62799        0.00236
H         -0.76952        1.91824        0.49560
H          0.15348        3.12702        1.42229
Au        -0.26627       -0.45336       -0.42007
H         -1.77234       -1.16468       -0.69927
C          4.06947       -0.13422       -0.13098
H          4.73349       -0.82098       -0.66200
H          4.04412        0.79449       -0.71982
Si        -2.98913       -0.37255        0.07101
C         -4.20343       -1.77389       -0.25459
H         -3.99138       -2.17753       -1.25934
H         -3.97831       -2.59200        0.45146
C         -5.67425       -1.36202       -0.16340
H         -5.92576       -0.58648       -0.90295
H         -6.33253       -2.22112       -0.36110
H         -5.94002       -0.97125        0.82994
C         -3.38072        1.18008       -0.91729
H         -2.44122        1.68709       -1.18790
H         -3.82861        0.85343       -1.87200
C         -4.30696        2.15521       -0.18866
H         -4.53044        3.03026       -0.81705
H         -5.27027        1.69491        0.07825
H         -3.85157        2.52945        0.74142
C         -2.63104       -0.11311        1.90290
H         -1.97064       -0.93273        2.23493
H         -2.04408        0.81234        2.02613
C         -3.88541       -0.07242        2.77997
H         -4.44480       -1.01859        2.73295
H         -3.61832        0.09408        3.83416
H         -4.57275        0.73519        2.48715
