60
CAAC_terbutyl_auhsi.log	Energy: -745235.8006191
C          2.47403       -1.74290       -0.13041
C          3.91866       -1.23985       -0.10487
C          3.87248        0.27798       -0.33261
H          4.35550       -1.44240        0.88415
H          4.55863       -1.73352       -0.84905
N          2.42683        0.58400        0.04837
C          2.21064       -2.77556        0.96819
H          1.16735       -3.12664        0.94975
H          2.86317       -3.64858        0.81593
H          2.41837       -2.36545        1.96787
C          2.05428       -2.32524       -1.48896
H          2.65123       -3.22582       -1.69650
H          0.99259       -2.61566       -1.48253
H          2.20660       -1.61800       -2.31612
C          4.91884        0.93660        0.56290
H          5.14723        1.97274        0.29553
H          4.62772        0.88971        1.62247
H          5.85171        0.36407        0.45348
C          4.09460        0.63475       -1.80196
H          4.00939        1.71197       -1.99315
H          5.11139        0.33097       -2.08978
H          3.38664        0.11274       -2.45963
C          1.68401       -0.48222        0.11260
C          1.83753        1.97751        0.17775
C          1.09617        2.07516        1.51286
H          1.77168        1.84906        2.35071
H          0.72142        3.09994        1.64274
H          0.23471        1.39492        1.57311
C          2.88450        3.09044        0.18215
H          3.52173        3.10000       -0.70915
H          2.33700        4.04274        0.19109
H          3.51234        3.07341        1.08016
C          0.90323        2.20612       -1.01276
H          0.10053        1.45529       -1.04883
H          0.43879        3.19893       -0.93118
H          1.45523        2.16567       -1.96295
Au        -0.32410       -0.67843        0.39323
H         -1.92400       -1.12628        0.72034
Si        -2.98687       -0.08742        0.00969
C         -4.46339       -1.07654        0.62580
H         -4.21724       -2.14702        0.52131
H         -4.56062       -0.89619        1.71053
C         -5.77734       -0.77408       -0.09753
H         -5.71689       -1.01778       -1.16909
H         -6.59875       -1.37276        0.32339
H         -6.06979        0.28307       -0.01284
C         -2.78865       -0.12355       -1.86237
H         -1.72150       -0.02142       -2.12224
H         -3.08382       -1.12954       -2.20794
C         -3.60023        0.95901       -2.57832
H         -3.48374        0.87856       -3.66928
H         -4.67627        0.88624       -2.36090
H         -3.27273        1.96970       -2.28988
C         -2.82395        1.61430        0.79710
H         -2.45053        1.47408        1.82604
H         -2.03599        2.17164        0.26243
C         -4.12715        2.41699        0.82480
H         -4.90310        1.90894        1.41657
H         -3.96793        3.40546        1.28081
H         -4.53536        2.58532       -0.18285
