61
CAAC_phMe_auhsi.log	Energy: -816100.4018433
C         -3.16084       -1.49885        0.01728
C         -4.29766       -0.47493       -0.19030
C         -3.69795        0.92161        0.04372
H         -4.66976       -0.54414       -1.22289
H         -5.15159       -0.66205        0.47490
N         -2.22646        0.61250       -0.06120
C         -3.15025       -2.58529       -1.05842
H         -2.31677       -3.28770       -0.90599
H         -4.08869       -3.15814       -1.01660
H         -3.05814       -2.15516       -2.06698
C         -3.18758       -2.14664        1.41049
H         -4.09716       -2.75766        1.50881
H         -2.31758       -2.80415        1.55766
H         -3.19078       -1.39934        2.21703
C         -4.11286        1.92030       -1.02587
H         -3.64660        2.90389       -0.87158
H         -3.86157        1.55861       -2.03367
H         -5.20315        2.05564       -0.97926
C         -3.97740        1.48117        1.43517
H         -3.44454        2.42944        1.59763
H         -5.05377        1.68024        1.53574
H         -3.68678        0.77492        2.22576
C         -1.92103       -0.64996       -0.06606
C         -1.23748        1.65073       -0.03845
C         -0.89097        2.31673       -1.21365
C         -0.60770        1.97016        1.16304
C          0.09547        3.29655       -1.17837
H         -1.37708        2.05495       -2.15469
C          0.37902        2.95241        1.18208
H         -0.88797        1.44554        2.07889
C          0.75271        3.62912        0.01494
H          0.36894        3.80926       -2.10401
H          0.86979        3.19724        2.12709
C          1.84194        4.65850        0.02639
H          2.74222        4.27771       -0.48334
H          1.53489        5.57196       -0.50401
H          2.12803        4.93602        1.04963
Au        -0.01459       -1.31645       -0.10831
H          1.51592       -2.04974       -0.16038
Si         2.67760       -0.88182       -0.00619
C          4.06139       -2.12561       -0.28076
H          3.79378       -3.05362        0.25268
H          4.07055       -2.38788       -1.35299
C          5.44078       -1.64508        0.17491
H          5.46562       -1.44940        1.25775
H          6.20655       -2.40731       -0.03238
H          5.75431       -0.72280       -0.33665
C          2.62354       -0.18647        1.74198
H          1.58099        0.07810        1.98453
H          2.90060       -0.99791        2.43696
C          3.52184        1.03570        1.94271
H          3.47928        1.38720        2.98471
H          4.57731        0.82215        1.71674
H          3.20866        1.87390        1.30161
C          2.50904        0.39964       -1.37200
H          2.08696       -0.10507       -2.25806
H          1.75129        1.13568       -1.05522
C          3.81520        1.10253       -1.74983
H          4.55842        0.39656       -2.14955
H          3.63822        1.85953       -2.52893
H          4.27599        1.61688       -0.89323
