67
CAAC_mes_auhsi.log	Energy: -865353.3460945
C         -3.04499       -1.68086       -0.04572
C         -4.19244       -0.69180       -0.34006
C         -3.65794        0.72129       -0.05332
H         -4.47724       -0.76669       -1.39976
H         -5.09112       -0.91033        0.25265
N         -2.16798        0.46015       -0.05214
C         -1.19443        1.52129       -0.01121
C         -0.69400        1.95430        1.23173
C         -0.71249        2.04831       -1.22321
C          0.24429        2.98899        1.23046
C          0.22219        3.08468       -1.15901
C          0.70087        3.58492        0.05316
H          0.64436        3.32888        2.18974
H          0.60364        3.49951       -2.09640
C         -1.10340        1.51469       -2.57154
H         -1.58632        0.53135       -2.51879
H         -1.78856        2.20157       -3.09151
H         -0.21083        1.41298       -3.20558
C          1.68098        4.71818        0.08831
H          2.35407        4.69858       -0.78066
H          1.15240        5.68539        0.06782
H          2.29070        4.69934        1.00240
C         -1.07899        1.33168        2.54367
H         -1.87200        1.90382        3.04829
H         -1.43042        0.29763        2.43597
H         -0.21471        1.32100        3.22236
C         -2.92482       -2.76818       -1.11368
H         -2.08556       -3.44674       -0.89806
H         -3.84768       -3.36673       -1.14017
H         -2.77029       -2.33715       -2.11441
C         -3.15203       -2.32698        1.34410
H         -4.04107       -2.97421        1.37650
H         -2.27008       -2.94855        1.56048
H         -3.24764       -1.57929        2.14456
C         -4.03557        1.72084       -1.13582
H         -3.54747        2.69360       -0.97705
H         -3.78609        1.35260       -2.13864
H         -5.12259        1.88162       -1.09929
C         -4.08555        1.26054        1.30756
H         -3.61531        2.23217        1.51476
H         -5.17408        1.41270        1.29919
H         -3.84748        0.56752        2.12449
C         -1.82996       -0.79347       -0.04685
Au         0.09626       -1.39881       -0.00379
H          1.64754       -2.08869        0.03091
Si         2.77528       -0.87914        0.00694
C          4.19353       -2.11192       -0.07385
H          3.94703       -2.95574        0.59290
H          4.21667       -2.53255       -1.09419
C          5.55652       -1.53078        0.30771
H          5.56790       -1.17165        1.34805
H          6.34346       -2.29480        0.22167
H          5.84946       -0.68912       -0.33747
C          2.69262        0.08050        1.62301
H          1.64204        0.35852        1.80842
H          2.97868       -0.60333        2.44073
C          3.56023        1.34055        1.63105
H          3.49317        1.85636        2.60099
H          4.62371        1.11944        1.45543
H          3.23539        2.05479        0.85942
C          2.57520        0.17310       -1.53881
H          2.14049       -0.46221       -2.32959
H          1.82147        0.94792       -1.31805
C          3.87261        0.81241       -2.03976
H          4.61577        0.05478       -2.33017
H          3.68347        1.43557       -2.92691
H          4.33817        1.45941       -1.28127
