76
CAAC_dipp_auhsi.log	Energy: -939221.6779055
C         -2.39759       -2.32002        0.14415
C         -3.79138       -1.68264       -0.02573
C         -3.63791       -0.17965        0.25392
H         -4.13443       -1.82822       -1.06078
H         -4.54247       -2.14067        0.63218
N         -2.13569       -0.02155        0.09534
C         -1.49790        1.27228        0.02299
C         -1.05816        1.89228        1.20996
C         -1.30798        1.85605       -1.24667
C         -0.49394        3.16743        1.10077
C         -0.73142        3.12873       -1.29214
C         -0.34756        3.79021       -0.13225
H         -0.15219        3.67709        2.00403
H         -0.57705        3.60906       -2.26053
C         -1.61982        1.14481       -2.55163
H         -2.17816        0.22724       -2.31697
C         -1.07075        1.21140        2.56647
H         -1.65235        0.28508        2.47823
C         -2.09854       -3.35275       -0.94260
H         -1.09259       -3.78179       -0.81888
H         -2.82787       -4.17460       -0.88470
H         -2.16262       -2.91092       -1.94850
C         -2.18404       -2.94764        1.53023
H         -2.86125       -3.80637        1.64985
H         -1.15093       -3.30923        1.64319
H         -2.38626       -2.23794        2.34510
C         -4.38913        0.68468       -0.74713
H         -4.17013        1.75275       -0.60399
H         -4.16461        0.40942       -1.78482
H         -5.46753        0.53963       -0.59069
C         -4.06965        0.21041        1.66327
H         -3.84394        1.26478        1.87231
H         -5.15853        0.08224        1.73989
H         -3.60530       -0.41391        2.43737
C         -1.47371       -1.13681        0.03136
Au         0.52854       -1.24670       -0.21777
C         -1.71408        2.06706        3.65585
H         -1.79153        1.49671        4.59350
H         -1.11612        2.96530        3.87168
H         -2.72362        2.40203        3.37718
C          0.34831        0.80049        2.96336
H          1.00846        1.67647        3.06088
H          0.34429        0.27294        3.92933
H          0.78797        0.12747        2.21124
C         -2.48159        1.98932       -3.48927
H         -1.93677        2.87348       -3.85298
H         -2.77160        1.40214       -4.37341
H         -3.39869        2.34421       -2.99800
C         -0.32803        0.70902       -3.24691
H         -0.55339        0.17551       -4.18265
H          0.30347        1.57557       -3.49756
H          0.26272        0.03266       -2.60756
H          2.15814       -1.56396       -0.56859
H          0.08732        4.79038       -0.19155
Si         3.16456       -0.34180       -0.12809
C          4.47209       -0.79690       -1.40055
H          4.48437       -1.89552       -1.50043
H          4.14399       -0.40846       -2.38037
C          5.87465       -0.29238       -1.05381
H          6.23568       -0.71693       -0.10451
H          6.59716       -0.58144       -1.83153
H          5.91601        0.80330       -0.96307
C          3.64615       -0.77358        1.63692
H          2.73949       -1.06636        2.19118
H          4.27262       -1.68143        1.59238
C          4.37006        0.35018        2.37984
H          4.65175        0.03317        3.39498
H          5.29427        0.66030        1.86890
H          3.73346        1.24250        2.48215
C          2.43305        1.37257       -0.38098
H          1.80257        1.34404       -1.28475
H          1.74202        1.59101        0.44902
C          3.47121        2.48838       -0.51833
H          4.11333        2.34407       -1.40010
H          2.97117        3.46180       -0.63614
H          4.12699        2.56335        0.36173
