72
CAAC_ad_auhsi.log	Energy: -890742.8213973
C          2.02946       -2.68636        0.04253
C          3.51311       -2.40334        0.28188
C          3.74271       -0.91572       -0.01752
H          3.75366       -2.59898        1.33733
H          4.17504       -3.03685       -0.32446
N          2.32259       -0.37013        0.11938
C          1.44329       -3.59284        1.12779
H          0.37468       -3.79177        0.95379
H          1.97166       -4.55828        1.12411
H          1.55262       -3.14855        2.12854
C          1.73929       -3.29297       -1.33892
H          2.21551       -4.28245       -1.40669
H          0.65746       -3.42549       -1.49246
H          2.12319       -2.67324       -2.16094
C          4.74393       -0.36832        0.99675
H          5.17735        0.59721        0.71905
H          4.29953       -0.29303        1.99984
H          5.57385       -1.08781        1.05831
C          4.23025       -0.69697       -1.44937
H          4.35109        0.36562       -1.69522
H          5.21388       -1.17468       -1.56476
H          3.54801       -1.14297       -2.18524
C          1.42002       -1.30741        0.10082
C          1.94973        1.09457        0.08068
C          3.14772        2.04570        0.22873
C          1.26566        1.38275       -1.26689
C          0.99634        1.41427        1.24461
H          3.89784        1.86303       -0.55189
H          3.62891        1.89474        1.20341
C          2.68660        3.50728        0.13835
H          0.40993        0.69880       -1.39363
H          1.96921        1.17038       -2.08817
C          0.79293        2.83541       -1.32679
H          1.51425        1.22442        2.19936
H          0.12343        0.74252        1.21964
C          0.52013        2.86692        1.16314
H          3.57889        4.14616        0.22887
C          2.00186        3.76283       -1.20376
C          1.71854        3.80695        1.28178
H          0.28715        3.00184       -2.29151
C         -0.18224        3.09990       -0.17719
H         -0.18380        3.04950        1.99144
H          2.70425        3.58538       -2.03502
H          1.68571        4.81581       -1.27310
H          2.21838        3.66900        2.25457
H          1.38793        4.85691        1.23752
H         -0.55973        4.13351       -0.23072
H         -1.05811        2.43728       -0.26825
Au        -0.61561       -1.21249        0.04090
H         -2.27017       -1.55106       -0.03873
Si        -3.23835       -0.23349       -0.03110
C         -4.79312       -1.29388       -0.01726
H         -4.61679       -2.15742       -0.68105
H         -4.90251       -1.71418        0.99767
C         -6.06799       -0.56446       -0.44570
H         -6.00179       -0.20715       -1.48452
H         -6.93720       -1.23668       -0.39102
H         -6.28926        0.30476        0.19136
C         -2.99869        0.71722       -1.63698
H         -1.92130        0.87618       -1.80885
H         -3.33684        0.06207       -2.45859
C         -3.73507        2.05821       -1.67424
H         -3.59535        2.55538       -2.64574
H         -4.81841        1.94380       -1.52130
H         -3.36403        2.74781       -0.90051
C         -2.98738        0.74982        1.55375
H         -2.66559        0.04222        2.33731
H         -2.14428        1.44555        1.41204
C         -4.23336        1.50851        2.01776
H         -5.06619        0.82496        2.24041
H         -4.02525        2.07499        2.93764
H         -4.58722        2.22859        1.26478
