151
ipr_star_auhsi.log	Energy: -2152578.6359047
N         -0.01092       -0.26993        1.50102
C          0.02960        0.42982        0.34413
N          0.13508        1.72036        0.70792
C          0.16205        1.83798        2.08842
H          0.24345        2.80271        2.57928
C          0.07067        0.58124        2.58786
H          0.05767        0.22268        3.61094
C          0.21374        2.84963       -0.16613
C          1.47669        3.32477       -0.54295
C         -0.97117        3.48200       -0.56391
C          1.53438        4.50803       -1.27822
C         -0.86435        4.66416       -1.29607
C          0.37770        5.20295       -1.64650
H          2.51290        4.90003       -1.56576
H         -1.78005        5.17909       -1.59694
C         -0.12601       -1.70036        1.53181
C         -1.40573       -2.27899        1.54234
C          1.04524       -2.47630        1.50438
C         -1.49010       -3.67135        1.49604
C          0.90499       -3.86323        1.45420
C         -0.35065       -4.47785        1.44355
H         -2.47767       -4.13659        1.48974
H          1.80540       -4.47978        1.41705
C         -2.31598        2.83598       -0.29789
H         -2.18950        2.16803        0.56855
C          2.72246        2.51273       -0.24872
H          2.49546        1.87516        0.62032
C         -2.65059       -1.40321        1.61027
H         -2.55959       -0.66268        0.79631
C          2.41353       -1.80855        1.54513
H          2.42242       -1.05503        0.73851
C          2.63585       -1.06136        2.84849
C          3.42279        0.09431        2.85482
C          2.08815       -1.50706        4.05549
C          3.63442        0.80790        4.03133
H          3.87601        0.44174        1.92291
C          2.30100       -0.79710        5.23744
H          1.47141       -2.40968        4.06840
C          3.06725        0.36729        5.22758
H          4.24911        1.71104        4.01226
H          1.86423       -1.15673        6.17222
H          3.23093        0.92528        6.15221
C          3.55434       -2.76594        1.24764
C          3.97717       -2.93967       -0.07304
C          4.18187       -3.50712        2.25421
C          4.99166       -3.84104       -0.38874
H          3.50739       -2.35106       -0.86169
C          5.19473       -4.41258        1.94176
H          3.88338       -3.36975        3.29583
C          5.60172       -4.58543        0.61969
H          5.31248       -3.95687       -1.42725
H          5.67522       -4.98236        2.74045
H          6.39945       -5.29131        0.37791
C         -3.93214       -2.17479        1.34557
C         -4.36888       -2.34589        0.02852
C         -4.67555       -2.75602        2.37745
C         -5.51019       -3.09146       -0.25780
H         -3.80547       -1.88258       -0.78235
C         -5.81801       -3.50366        2.09462
H         -4.36461       -2.61730        3.41511
C         -6.23814       -3.67715        0.77707
H         -5.83622       -3.21117       -1.29421
H         -6.38795       -3.94922        2.91319
H         -7.13567       -4.25994        0.55831
C         -2.72248       -0.62130        2.90959
C         -3.31758        0.64386        2.92165
C         -2.22556       -1.14106        4.10890
C         -3.38813        1.38842        4.09596
H         -3.73210        1.05471        1.99727
C         -2.29773       -0.39977        5.28850
H         -1.75975       -2.13013        4.11681
C         -2.87106        0.87082        5.28400
H         -3.85372        2.37679        4.08175
H         -1.90260       -0.81842        6.21722
H         -2.92438        1.45292        6.20670
C         -2.75375        1.94571       -1.45450
C         -3.87218        1.11883       -1.28290
C         -2.09146        1.91612       -2.68673
C         -4.31917        0.29462       -2.31154
H         -4.41774        1.13833       -0.33549
C         -2.53679        1.08689       -3.72005
H         -1.22669        2.56104       -2.85300
C         -3.64982        0.27190       -3.53666
H         -5.20443       -0.32624       -2.15693
H         -2.00991        1.09165       -4.67762
H         -4.00746       -0.36625       -4.34821
C         -3.36846        3.85078        0.10953
C         -3.38805        4.30580        1.43300
C         -4.29397        4.37371       -0.79724
C         -4.31028        5.26465        1.84284
H         -2.66779        3.90012        2.14992
C         -5.21700        5.33672       -0.38908
H         -4.30135        4.01670       -1.83007
C         -5.22839        5.78429        0.93006
H         -4.31514        5.60809        2.88009
H         -5.93593        5.73608       -1.10820
H         -5.95488        6.53486        1.24914
C          3.88968        3.38665        0.17114
C          3.97124        3.81065        1.50220
C          4.86537        3.81442       -0.73357
C          5.00240        4.64691        1.92188
H          3.21387        3.47743        2.21815
C          5.89741        4.65439       -0.31589
H          4.82559        3.47732       -1.77242
C          5.96924        5.07267        1.01120
H          5.05421        4.96700        2.96528
H          6.65413        4.97993       -1.03345
H          6.78090        5.72655        1.33772
C          3.06126        1.56025       -1.38941
C          4.11984        0.65709       -1.22229
C          2.35880        1.54037       -2.59910
C          4.47233       -0.23067       -2.23443
H          4.69651        0.66811       -0.29352
C          2.70711        0.64597       -3.61512
H          1.54175        2.24540       -2.76331
C          3.76416       -0.24222       -3.43776
H          5.31159       -0.91324       -2.08319
H          2.15166        0.65863       -4.55640
H          4.04802       -0.93029       -4.23759
C          0.46845        6.50382       -2.38584
H         -0.41724        6.67610       -3.01309
H          0.53496        7.34408       -1.67517
H          1.36216        6.54522       -3.02404
C         -0.46822       -5.97228        1.40368
H         -0.36906       -6.39765        2.41595
H         -1.44273       -6.29035        1.00812
H          0.32338       -6.42140        0.78660
Au        -0.07227       -0.31963       -1.52329
H         -0.17355       -0.82928       -3.12649
Si        -0.22234       -2.47570       -3.12328
C         -0.33634       -2.48200       -5.00510
H         -1.03875       -1.68232       -5.29749
H          0.64846       -2.17632       -5.40040
C         -0.77882       -3.81124       -5.61738
H         -1.79266       -4.08844       -5.29062
H         -0.79749       -3.75355       -6.71624
H         -0.10741       -4.63988       -5.34662
C         -1.76803       -3.11231       -2.26781
H         -1.78705       -2.66626       -1.26100
H         -2.64555       -2.70531       -2.79863
C         -1.85322       -4.63221       -2.13470
H         -2.77483       -4.92053       -1.60554
H         -1.85723       -5.14402       -3.10864
H         -1.00829       -5.02990       -1.55228
C          1.38298       -3.17542       -2.44963
H          2.15986       -2.41199       -2.62292
H          1.27106       -3.25089       -1.35468
C          1.82339       -4.51646       -3.03519
H          2.02558       -4.44489       -4.11478
H          2.74820       -4.86478       -2.54975
H          1.06667       -5.30281       -2.89288
