87
l_ad_auhsi.log	Energy: -1141777.2724170
C         -0.86925        3.78155       -0.42323
C         -2.69600        2.17080       -0.32091
C         -3.51601        3.23024       -0.59845
C         -3.07637        4.56554       -0.81642
C         -1.75702        4.85255       -0.67999
C          0.49263        3.76611       -0.27578
H         -4.58675        3.05046       -0.60410
H         -3.80738        5.34425       -1.03848
H         -1.35168        5.86073       -0.77171
H          1.17960        4.60199       -0.27649
N         -1.30211        2.44167       -0.33281
C         -0.19558        1.62967       -0.21127
N          0.87278        2.46591       -0.14171
C          2.28067        2.05747        0.14084
C          2.85496        1.21185       -1.00300
C          3.16630        3.30164        0.30122
C          2.31294        1.27330        1.46022
H          2.83155        1.79565       -1.93779
H          2.22454        0.32115       -1.16649
C          4.28494        0.78246       -0.66146
H          2.77438        3.94163        1.10830
H          3.16471        3.89018       -0.63060
C          4.60413        2.88592        0.63279
H          1.66295        0.38835        1.37589
H          1.89525        1.90186        2.26388
C          3.74660        0.85084        1.78459
H          4.66890        0.15671       -1.48332
C          5.16309        2.02430       -0.50067
C          4.28574       -0.01717        0.64538
H          5.20935        3.79940        0.74047
C          4.62064        2.09564        1.94228
H          3.74145        0.27429        2.72348
H          5.18868        2.59734       -1.44213
H          6.20125        1.73139       -0.27674
H          3.66690       -0.92383        0.54133
H          5.30775       -0.35647        0.87824
H          5.65294        1.80709        2.19672
H          4.24959        2.71955        2.77205
C         -3.29034        0.82554        0.09091
C         -2.66463        0.33736        1.41859
C         -4.80986        0.96017        0.36443
C         -3.17119       -0.23509       -1.02524
H         -2.85398        1.09676        2.19582
H         -1.57214        0.24352        1.33862
C         -3.25581       -1.00908        1.83830
H         -5.33075        1.28500       -0.55008
H         -4.98396        1.72841        1.13558
C         -5.42257       -0.37111        0.81242
H         -2.12572       -0.35926       -1.35686
H         -3.72070        0.12473       -1.91070
C         -3.73651       -1.57905       -0.55906
H         -2.74891       -1.34488        2.75787
C         -4.75227       -0.84870        2.09919
C         -3.03157       -2.03337        0.72317
H         -6.49786       -0.21038        0.98955
C         -5.23229       -1.42075       -0.28356
H         -3.57947       -2.32498       -1.35581
H         -4.91915       -0.12390        2.91293
H         -5.19220       -1.80503        2.42583
H         -1.94868       -2.15410        0.54219
H         -3.41309       -3.02053        1.03194
H         -5.66954       -2.38237        0.03090
H         -5.75666       -1.11614       -1.20423
Au        -0.01263       -0.37902       -0.54937
H         -0.00929       -1.94081       -1.16106
Si         0.98056       -2.99521       -0.40111
C         -0.13568       -4.46310       -0.77821
H         -1.17063       -4.16338       -0.54090
H         -0.11389       -4.62779       -1.86953
C          0.21660       -5.74825       -0.02769
H          0.12915       -5.61940        1.06192
H         -0.46326       -6.56545       -0.31149
H          1.24065       -6.09033       -0.24011
C          1.23181       -2.73747        1.44997
H          1.40261       -1.67080        1.66380
H          0.28125       -2.99360        1.94901
C          2.38718       -3.56487        2.01989
H          2.46138       -3.43171        3.10956
H          2.26555       -4.64189        1.83171
H          3.35316       -3.26088        1.58844
C          2.52738       -2.93050       -1.46596
H          2.19844       -2.65717       -2.48350
H          3.16041       -2.09509       -1.12477
C          3.32866       -4.23278       -1.51055
H          2.73113       -5.06325       -1.91587
H          4.21312       -4.12700       -2.15631
H          3.68651       -4.53765       -0.51597
