95
l_dipp_auhsi.log	Energy: -1238739.0872118
C         -2.13939        2.90839        0.58519
C         -3.12066        0.68479        0.30801
C         -4.34708        1.24368        0.50954
C         -4.51204        2.64078        0.75560
C         -3.42681        3.46513        0.80040
C         -0.85938        3.41641        0.54203
H         -5.21459        0.58328        0.49118
H         -5.51507        3.04070        0.91338
H         -3.51568        4.53498        0.99185
H         -0.48835        4.42749        0.67719
N         -2.01186        1.53105        0.33698
C         -0.70473        1.20083        0.13953
C          1.39461        2.46785        0.13569
C          1.92798        2.68134       -1.14531
C          2.18242        2.35288        1.29201
C          3.31749        2.79953       -1.24401
C          3.56543        2.48552        1.13611
C          4.12697        2.71102       -0.11646
H          3.77260        2.96912       -2.22240
H          4.21365        2.40924        2.01200
N         -0.03117        2.36131        0.27130
C         -2.88955       -0.76512        0.08901
C         -2.67092       -1.59952        1.20493
C         -2.88547       -1.27376       -1.22819
C         -2.46459       -2.96407        0.97774
C         -2.68681       -2.64677       -1.40454
C         -2.47843       -3.48381       -0.31243
H         -2.29995       -3.63257        1.82612
H         -2.69643       -3.06820       -2.41199
C          1.06146        2.76728       -2.38574
H          0.01054        2.66480       -2.07406
C          1.58870        2.07310        2.65786
H          0.49829        1.97575        2.54142
C         -2.64991       -1.05183        2.61884
H         -2.83964        0.03170        2.56019
C         -3.11791       -0.36829       -2.42203
H         -3.01830        0.67276       -2.07263
C          1.20202        4.12395       -3.07522
H          0.96001        4.95009       -2.39014
H          2.22640        4.28592       -3.44448
H          0.52464        4.18805       -3.94006
C          1.36183        1.61227       -3.34121
H          2.39613        1.65616       -3.71626
H          1.22393        0.64047       -2.84105
H          0.68936        1.64405       -4.21163
C          1.84461        3.22616        3.62751
H          1.36741        3.02707        4.59890
H          2.92112        3.36864        3.80898
H          1.44432        4.17446        3.23887
C          2.10043        0.74269        3.20956
H          1.61083        0.50461        4.16577
H          1.89534       -0.08010        2.50873
H          3.18636        0.76924        3.38947
C         -3.76736       -1.65732        3.46735
H         -4.75296       -1.49149        3.00763
H         -3.63588       -2.74345        3.59136
H         -3.77846       -1.20745        4.47163
C         -1.28029       -1.23392        3.27132
H         -1.26539       -0.78347        4.27544
H         -1.02228       -2.29885        3.38130
H         -0.49157       -0.75473        2.67170
C         -4.54285       -0.53415       -2.95213
H         -4.71206       -1.56109       -3.31185
H         -5.28848       -0.32870       -2.16980
H         -4.72990        0.15281       -3.79141
C         -2.08064       -0.57307       -3.52366
H         -1.05701       -0.45439       -3.13512
H         -2.15540       -1.57217       -3.97938
H         -2.22627        0.16312       -4.32843
H         -2.32835       -4.55464       -0.46933
H          5.20973        2.81641       -0.21536
Au         0.10709       -0.58270       -0.37109
H          0.64680       -2.04961       -0.96847
Si         2.14365       -2.32121       -0.30478
C          3.35025       -0.89224       -0.51166
H          3.07182       -0.35267       -1.43233
H          3.17998       -0.17271        0.30583
C          4.82452       -1.29399       -0.57412
H          5.03743       -1.93714       -1.44124
H          5.46180       -0.40132       -0.66746
H          5.15075       -1.83397        0.32725
C          2.43786       -3.72576       -1.52663
H          1.48027       -4.25437       -1.67278
H          2.68446       -3.27609       -2.50439
C          3.51750       -4.71989       -1.09618
H          3.65282       -5.50595       -1.85421
H          4.49575       -4.23831       -0.94961
H          3.25260       -5.22282       -0.15349
C          1.88818       -2.93380        1.45675
H          1.19409       -2.25244        1.97335
H          1.35709       -3.89967        1.39147
C          3.18034       -3.07234        2.26260
H          3.68682       -2.10224        2.38270
H          2.97563       -3.45847        3.27250
H          3.89642       -3.76159        1.79018
