77
l_mes_auhsi.log	Energy: -1090999.6303317
C         -2.41757       -3.10702        0.03728
C         -3.40767       -0.86699        0.02235
C         -4.63704       -1.45337        0.03891
C         -4.80005       -2.87291        0.05525
C         -3.71048       -3.69241        0.05502
C         -1.13004       -3.59790        0.03066
H         -5.51106       -0.80082        0.04031
H         -5.80651       -3.29457        0.06843
H         -3.79989       -4.77916        0.06775
H         -0.75589       -4.61712        0.03856
N         -2.29302       -1.70727        0.02081
C         -0.98156       -1.34628        0.00406
C          1.13432       -2.56447       -0.00154
C          1.81396       -2.57460        1.22324
C          1.79283       -2.57383       -1.23774
C          3.20937       -2.60105        1.18257
C          3.18883       -2.59653       -1.22081
C          3.91441       -2.61355       -0.02555
H          3.76185       -2.60912        2.12614
H          3.72551       -2.60020       -2.17331
N         -0.29915       -2.50921        0.01078
C         -3.17342        0.59626        0.00800
C         -3.07434        1.27172       -1.22441
C         -3.04541        1.29007        1.22816
C         -2.84063        2.64933       -1.21126
C         -2.81272        2.66660        1.18946
C         -2.70264        3.36366       -0.01780
H         -2.76663        3.17957       -2.16478
H         -2.71657        3.21081        2.13315
C         -2.40452        4.83339       -0.02992
H         -2.85850        5.34515        0.83037
H         -1.31653        5.00948        0.02422
H         -2.76854        5.31348       -0.94878
C          5.41278       -2.66938       -0.03663
H          5.76114       -3.71290        0.03481
H          5.82730       -2.24921       -0.96353
H          5.84405       -2.12507        0.81570
C          1.06942       -2.51528        2.52311
H          0.53629       -1.55543        2.62631
H          0.31399       -3.31200        2.60050
H          1.75515       -2.61461        3.37398
C          1.02542       -2.52753       -2.52512
H          0.29558       -3.34874       -2.59518
H          0.45754       -1.58646       -2.61441
H          1.69978       -2.59994       -3.38772
C         -3.21103        0.52623       -2.51985
H         -2.49948       -0.31292       -2.57944
H         -4.21899        0.09799       -2.63144
H         -3.02736        1.18537       -3.37834
C         -3.14900        0.56259        2.53674
H         -4.14812        0.12095        2.67244
H         -2.42358       -0.26479        2.59578
H         -2.96019        1.23720        3.38202
Au        -0.15474        0.50333       -0.03923
H          0.41003        2.07469       -0.09043
Si         2.07286        1.94439       -0.01055
C          2.17994        3.82800       -0.01257
H          1.43306        4.20419       -0.73300
H          1.84437        4.18170        0.97831
C          3.55780        4.39598       -0.35478
H          3.87120        4.11242       -1.37102
H          3.55036        5.49559       -0.31441
H          4.33752        4.05094        0.34036
C          2.78424        1.16370       -1.56944
H          2.28107        0.19750       -1.73597
H          2.51312        1.80543       -2.42559
C          4.29646        0.94219       -1.50558
H          4.66745        0.50028       -2.44296
H          4.85324        1.87751       -1.34526
H          4.56442        0.25021       -0.69310
C          2.64817        1.15941        1.60045
H          1.85586        1.31479        2.35267
H          2.70084        0.07002        1.43465
C          3.98144        1.69003        2.13129
H          3.92882        2.76333        2.36814
H          4.26890        1.16869        3.05700
H          4.80179        1.55028        1.41140
