65
l_phme_auhsi.log	Energy: -992487.3924877
C          2.71969       -3.04980       -0.04535
C          3.57851       -0.76035       -0.03582
C          4.83690       -1.27316       -0.13157
C          5.08085       -2.68021       -0.17918
C          4.04140       -3.56025       -0.13026
C          1.46700       -3.61956       -0.00389
H          5.67084       -0.57105       -0.15790
H          6.10802       -3.04192       -0.24913
H          4.19035       -4.64012       -0.16010
H          1.15867       -4.66042        0.00500
N          2.51114       -1.66047        0.00259
C          1.18076       -1.37915        0.05810
C         -0.84867       -2.74150        0.11318
C         -1.52570       -3.27910       -0.97858
C         -1.54210       -2.33736        1.25165
C         -2.91177       -3.39389       -0.92988
H         -0.97062       -3.58907       -1.86652
C         -2.92789       -2.45747        1.28391
H         -0.99254       -1.94224        2.10835
C         -3.63853       -2.97634        0.19350
H         -3.44233       -3.81033       -1.78963
H         -3.46941       -2.14859        2.18126
N          0.57120       -2.58500        0.06166
C          3.27883        0.68784        0.03343
C          3.00325        1.30159        1.26387
C          3.27825        1.46860       -1.12813
C          2.72450        2.66402        1.32148
H          3.02042        0.70832        2.18133
C          2.99392        2.83067       -1.05907
H          3.50268        1.00424       -2.09128
C          2.70520        3.45127        0.16195
H          2.52518        3.12834        2.29077
H          3.00317        3.42555       -1.97598
C          2.35955        4.90875        0.22583
H          2.83299        5.47337       -0.58929
H          1.26965        5.05346        0.13325
H          2.66762        5.35642        1.18104
C         -5.13521       -3.05412        0.21410
H         -5.57428       -2.16659       -0.27192
H         -5.50196       -3.93584       -0.32992
H         -5.52483       -3.09431        1.24050
Au         0.24029        0.42033       -0.00748
H         -0.42954        1.94627       -0.12147
Si        -2.08441        1.70522       -0.13626
C         -2.64473        1.37530        1.63048
H         -2.05117        0.53843        2.03280
H         -2.37375        2.25662        2.23748
C         -4.13620        1.06229        1.76062
H         -4.40557        0.15143        1.20446
H         -4.41398        0.89721        2.81275
H         -4.77010        1.87844        1.38304
C         -2.69820        0.46661       -1.41519
H         -1.98531        0.47144       -2.25733
H         -2.62821       -0.53963       -0.97011
C         -4.11426        0.72904       -1.93272
H         -4.41762       -0.05318       -2.64523
H         -4.86008        0.74025       -1.12378
H         -4.18576        1.69178       -2.46057
C         -2.32090        3.50131       -0.66097
H         -1.56252        4.10866       -0.13725
H         -2.06953        3.57046       -1.73397
C         -3.71394        4.07169       -0.39080
H         -3.94658        4.08068        0.68495
H         -3.78795        5.11074       -0.74528
H         -4.50647        3.49975       -0.89585
