63
l_terbutyl_auhsi.log	Energy: -850765.6341526
C          3.67971        1.00533        0.38494
C          3.11071       -1.35150        0.15783
C          4.43662       -1.59628        0.38553
C          5.42073       -0.59536        0.61465
C          5.04287        0.70769        0.61713
C          3.03031        2.20992        0.33234
H          4.76216       -2.63232        0.39386
H          6.45767       -0.88728        0.78640
H          5.73737        1.53087        0.78811
H          3.44317        3.20118        0.46510
N          2.70813        0.00927        0.15100
C          1.48746        0.62183       -0.04509
N          1.71946        1.95495        0.07368
C          0.68885        3.04276       -0.03974
C          1.35914        4.40050        0.15736
H          2.11690        4.60648       -0.61220
H          0.58742        5.17682        0.07058
H          1.81243        4.50164        1.15389
C          0.07259        3.00915       -1.43743
H          0.84805        3.12931       -2.20779
H         -0.46170        2.06771       -1.63443
H         -0.64588        3.83456       -1.53966
C         -0.34987        2.85183        1.06431
H         -0.87858        1.89339        0.96624
H          0.12604        2.88155        2.05538
H         -1.09385        3.65928        1.01333
C          2.13804       -2.50705       -0.07008
C          1.56240       -2.44433       -1.49678
H          0.78483       -3.21177       -1.62549
H          1.12289       -1.47342       -1.76895
H          2.36033       -2.64434       -2.22705
C          2.85793       -3.86115        0.01581
H          3.30844       -4.03475        1.00371
H          2.11654       -4.65613       -0.14938
H          3.63323       -3.97423       -0.75556
C          1.08005       -2.53847        1.04879
H          1.55687       -2.81204        2.00173
H          0.56832       -1.57999        1.21171
H          0.31560       -3.29701        0.82252
Au        -0.36334       -0.14624       -0.48895
H         -1.78039       -0.83083       -1.05581
Si        -3.02300       -0.45676       -0.01935
C         -3.62042        1.26134       -0.49960
H         -2.75319        1.93781       -0.56069
H         -4.01793        1.19359       -1.52738
C         -4.66787        1.84363        0.45102
H         -4.26664        1.97074        1.46841
H         -5.00393        2.83344        0.10766
H         -5.56235        1.20737        0.52685
C         -2.63901       -0.69899        1.81035
H         -1.88612       -1.50057        1.89865
H         -2.15231        0.21347        2.19447
C         -3.86612       -1.04970        2.65681
H         -3.58895       -1.15756        3.71601
H         -4.64683       -0.27661        2.60168
H         -4.31796       -2.00182        2.34122
C         -4.07842       -1.83959       -0.74071
H         -3.85609       -1.90884       -1.81916
H         -3.73276       -2.79197       -0.30196
C         -5.58375       -1.65862       -0.53577
H         -5.95275       -0.74439       -1.02517
H         -6.14022       -2.50296       -0.96921
H         -5.85923       -1.59973        0.52754
