101
per_dipp_auhsi.log	Energy: -1334987.6428478
C          2.58025        3.34113       -0.18122
C          2.36712        1.97820       -0.15856
C          3.45246        1.07429       -0.27004
C          4.77820        1.57222       -0.40944
C          4.97016        2.97780       -0.43205
C          3.89732        3.83014       -0.31944
H          1.74316        4.03316       -0.09399
C          3.22577       -0.32358       -0.23980
C          5.84024        0.63758       -0.51766
H          5.98293        3.37124       -0.53939
H          4.05642        4.91027       -0.33652
C          5.58772       -0.71375       -0.48541
C          4.27496       -1.21288       -0.34426
H          6.86132        1.00873       -0.62565
H          6.41321       -1.42363       -0.56857
H          4.09168       -2.28684       -0.31621
C          0.85143        0.09541        0.01223
N          1.88502       -0.74711       -0.08842
N          1.07296        1.41345       -0.03002
C          1.61855       -2.16194       -0.02175
C          1.67548       -2.79007        1.23405
C          1.34112       -2.85011       -1.21504
C          1.41951       -4.16345        1.27411
C          1.09671       -4.22302       -1.11766
C          1.13437       -4.87279        0.11185
H          1.44843       -4.68718        2.23224
H          0.87587       -4.79418       -2.02210
C         -0.04038        2.32072        0.07984
C         -0.59738        2.83145       -1.10554
C         -0.45800        2.72308        1.35894
C         -1.62902        3.76586       -0.97926
C         -1.49038        3.66458        1.42841
C         -2.06659        4.18367        0.27460
H         -2.08935        4.18332       -1.87710
H         -1.84098        4.00426        2.40562
C          0.17594        2.19165        2.62887
H          0.93302        1.44520        2.34407
C         -0.12445        2.37675       -2.47196
H          0.83709        1.85755       -2.33849
C          1.98574       -2.03015        2.50814
H          2.18982       -0.98274        2.23760
C          1.30466       -2.15933       -2.56349
H          1.42853       -1.07844       -2.39453
C          0.12841        3.54359       -3.42283
H         -0.79968        4.07854       -3.67572
H          0.83147        4.26902       -2.98767
H          0.55987        3.17752       -4.36629
C         -1.10856        1.36647       -3.06252
H         -1.22572        0.49723       -2.39725
H         -2.10315        1.81758       -3.20647
H         -0.75775        1.00111       -4.03962
C          0.89964        3.30175        3.39160
H          1.66394        3.78405        2.76471
H          0.19850        4.08023        3.73018
H          1.39943        2.89330        4.28290
C         -0.85305        1.48016        3.50650
H         -1.63760        2.17021        3.85350
H         -1.34286        0.65869        2.95981
H         -0.37112        1.05125        4.39762
C          3.24162       -2.56901        3.19238
H          3.10779       -3.61100        3.52127
H          4.10987       -2.53527        2.51805
H          3.48045       -1.96876        4.08319
C          0.78266       -2.03119        3.45133
H         -0.11113       -1.61693        2.95834
H          0.53589       -3.05005        3.78756
H          0.99055       -1.42548        4.34641
C          2.46304       -2.61669       -3.45099
H          3.43445       -2.42542       -2.97239
H          2.39810       -3.69426       -3.66771
H          2.44717       -2.08092       -4.41221
C         -0.04399       -2.35872       -3.25337
H         -0.21287       -3.41357       -3.51854
H         -0.87384       -2.04245       -2.60302
H         -0.09356       -1.77256       -4.18326
H          0.94257       -5.94684        0.16443
H         -2.86485        4.92540        0.35174
Au        -1.01401       -0.69133        0.28282
H         -2.41746       -1.54222        0.65216
Si        -3.74777       -0.76246        0.06484
C         -3.85813       -1.18668       -1.76399
H         -2.86671       -1.04242       -2.22167
H         -4.06949       -2.26719       -1.84356
C         -4.90003       -0.36774       -2.52743
H         -4.66242        0.70705       -2.50590
H         -4.94106       -0.67088       -3.58430
H         -5.91306       -0.49005       -2.11509
C         -3.76064        1.06967        0.47189
H         -3.24314        1.20302        1.43624
H         -3.13089        1.59033       -0.26840
C         -5.14868        1.70793        0.54004
H         -5.06468        2.78472        0.75251
H         -5.70567        1.60512       -0.40306
H         -5.76367        1.26645        1.33860
C         -4.90196       -1.79021        1.13901
H         -4.50510       -2.81873        1.18221
H         -4.84172       -1.40017        2.17001
C         -6.35086       -1.81317        0.64798
H         -6.43210       -2.25742       -0.35591
H         -6.98218       -2.41475        1.31891
H         -6.79338       -0.80696        0.60109
