69
per_terbutyl_auhsi.log	Energy: -946993.9752238
C          3.13208        2.38994       -1.30307
C          2.74084        1.32986       -0.51138
C          3.70303        0.37922       -0.11626
C          5.09126        0.64410       -0.22511
C          5.47377        1.79601       -0.95936
C          4.51237        2.59898       -1.53410
H          2.40835        3.09383       -1.71111
C          3.22743       -0.84654        0.39005
C          5.97470       -0.26695        0.40872
H          6.53395        2.02946       -1.07759
H          4.81496        3.45239       -2.14439
C          5.47239       -1.35082        1.09612
C          4.09366       -1.66854        1.08092
H          7.05153       -0.09250        0.35941
H          6.15467       -2.01732        1.62772
H          3.74696       -2.57751        1.57028
C          0.97095       -0.14250        0.10005
N          1.87241       -1.14517        0.06003
N          1.43610        1.12126        0.02736
C          0.66429        2.29884        0.60173
C         -0.38982        2.75177       -0.40339
H         -0.96100        3.59900        0.00310
H          0.07103        3.07351       -1.34814
H         -1.09766        1.94017       -0.63088
C          0.04264        1.89979        1.94622
H         -0.74245        1.13516        1.86428
H          0.81498        1.52538        2.63405
H         -0.41958        2.78677        2.40037
C          1.50931       -2.53496       -0.44438
C          0.59967       -2.41027       -1.67394
H         -0.39528       -1.99823       -1.45099
H          1.06960       -1.77894       -2.44259
H          0.44209       -3.41001       -2.10070
C          2.75720       -3.26669       -0.95379
H          3.42386       -3.62014       -0.16216
H          2.41662       -4.15184       -1.50752
H          3.34035       -2.64096       -1.64421
C          0.84721       -3.33241        0.67466
H          0.58198       -4.33692        0.31507
H          1.51946       -3.44384        1.53729
H         -0.07732       -2.84624        1.02652
C          1.61244        3.45615        0.93987
H          1.98530        4.00127        0.06825
H          1.05128        4.17351        1.55362
H          2.47511        3.11274        1.52811
Au        -1.04357       -0.56574        0.28621
H         -2.60373       -1.14247        0.55732
Si        -3.74269       -0.10705       -0.03295
C         -3.49451        0.26844       -1.86263
H         -2.43651        0.50996       -2.05805
H         -3.69485       -0.66293       -2.42033
C         -4.38515        1.40711       -2.36620
H         -4.15466        2.35682       -1.85935
H         -4.23996        1.57017       -3.44443
H         -5.45463        1.20090       -2.21037
C         -3.81078        1.39080        1.10259
H         -3.45605        1.06708        2.09621
H         -3.07635        2.13271        0.74821
C         -5.19864        2.02355        1.22859
H         -5.17085        2.89594        1.89834
H         -5.58939        2.36957        0.26007
H         -5.93017        1.31703        1.64832
C         -5.11306       -1.35941        0.27596
H         -4.74032       -2.34881       -0.03994
H         -5.26586       -1.43099        1.36686
C         -6.42912       -1.04863       -0.43965
H         -6.30577       -1.04206       -1.53333
H         -7.18833       -1.80966       -0.20543
H         -6.84581       -0.07363       -0.14644
