93
per_ad_auhsi.log	Energy: -1238005.6180940
C         -3.94339        1.60993       -1.32178
C         -3.12028        0.90803       -0.46468
C         -3.69099       -0.04991        0.39677
C         -5.08334       -0.07243        0.65943
C         -5.90697        0.74161       -0.16006
C         -5.34568        1.50075       -1.16455
H         -3.53708        2.27230       -2.08478
C         -2.81742       -0.98716        0.98285
C         -5.52640       -0.90834        1.71668
H         -6.98724        0.74524       -0.00034
H         -5.99076        2.07717       -1.83091
C         -4.61538       -1.64779        2.44028
C         -3.24984       -1.71326        2.07393
H         -6.58995       -0.94594        1.96158
H         -4.95595       -2.24303        3.29005
H         -2.57397       -2.36388        2.62722
C         -0.95113       -0.00690       -0.11860
N         -1.56029       -1.12603        0.32514
N         -1.71436        1.08922       -0.31042
C         -1.01942       -2.50019       -0.01951
C         -2.09546       -3.59278        0.12381
C         -0.61028       -2.51582       -1.50715
C          0.16665       -2.86193        0.87869
H         -2.96920       -3.33979       -0.49815
H         -2.45309       -3.67005        1.15505
C         -1.52430       -4.96144       -0.27165
H          0.13671       -1.73441       -1.71934
H         -1.49609       -2.27976       -2.12002
C         -0.01637       -3.86913       -1.89865
H         -0.16181       -2.88429        1.93094
H          0.94116       -2.07797        0.80548
C          0.74296       -4.21891        0.46357
H         -2.31854       -5.71046       -0.12705
C         -1.07623       -4.95378       -1.72987
C         -0.33392       -5.29364        0.63197
H          0.30673       -3.81605       -2.95050
C          1.18799       -4.16612       -1.00121
H          1.60641       -4.45123        1.10830
H         -1.93266       -4.75674       -2.39519
H         -0.66995       -5.93859       -2.01139
H         -0.65491       -5.34814        1.68558
H          0.07346       -6.28368        0.37163
H          1.64657       -5.12555       -1.28924
H          1.96155       -3.39108       -1.13880
C         -1.12595        2.48331       -0.20762
C         -2.20682        3.55106        0.04737
C         -0.20061        2.54098        1.02457
C         -0.36776        2.84994       -1.48772
H         -2.78084        3.29203        0.95161
H         -2.92341        3.60351       -0.77774
C         -1.56411        4.93851        0.18816
H          0.57980        1.76851        0.96532
H         -0.79642        2.31499        1.92463
C          0.47117        3.90897        1.14341
H         -1.06447        2.83982       -2.34202
H          0.40561        2.09021       -1.70210
C          0.28145        4.22790       -1.33517
H         -2.37385        5.66822        0.34481
C         -0.60042        4.97141        1.37102
C         -0.80732        5.27698       -1.09844
H          1.16509        3.88391        1.99973
C          1.24438        4.20899       -0.14462
H          0.83439        4.46431       -2.25812
H         -1.13774        4.77343        2.31285
H         -0.14362        5.96980        1.46427
H         -1.49991        5.30436       -1.95601
H         -0.35834        6.28014       -1.02032
H          1.75831        5.17964       -0.05830
H          2.02889        3.44814       -0.30714
Au         1.08448        0.03380       -0.50918
H          2.67226        0.11374       -1.06211
Si         3.79321        0.04801        0.13829
C          5.09056        0.89739       -0.92972
H          4.92944        0.58042       -1.97408
H          4.87740        1.98083       -0.91042
C          6.53911        0.61917       -0.52406
H          6.78585       -0.44968       -0.61261
H          7.23794        1.16642       -1.17419
H          6.75214        0.92363        0.51134
C          4.09683       -1.78478        0.41733
H          3.12532       -2.26780        0.60987
H          4.45775       -2.20991       -0.53548
C          5.06534       -2.10554        1.55722
H          5.22222       -3.19115        1.64297
H          6.05393       -1.64604        1.40976
H          4.67943       -1.75658        2.52710
C          3.35675        1.02269        1.68975
H          2.78745        1.91636        1.38617
H          2.66817        0.41733        2.30380
C          4.57850        1.45276        2.50712
H          5.22950        2.13046        1.93489
H          4.26787        1.99123        3.41493
H          5.19109        0.59810        2.82974
