83
per_mes_auhsi.log	Energy: -1187248.7041149
C          4.64521        0.36941       -0.04123
C          3.43862       -0.29790       -0.03190
C          3.38953       -1.71367       -0.05987
C          4.59938       -2.46148       -0.10156
C          5.82839       -1.75228       -0.11071
C          5.84239       -0.37744       -0.08048
H          4.67126        1.45919       -0.01964
C          2.14399       -2.38937       -0.04727
C          4.51411       -3.87765       -0.13209
H          6.76297       -2.31582       -0.14235
H          6.79454        0.15699       -0.08763
C          3.29013       -4.50408       -0.12170
C          2.08684       -3.76693       -0.07876
H          5.43595       -4.46178       -0.16416
H          3.23690       -5.59441       -0.14619
H          1.12462       -4.27937       -0.06924
C          1.01841       -0.24615        0.01818
N          0.97987       -1.58262        0.00007
N          2.19752        0.38168        0.00216
C         -0.30393       -2.23165        0.03207
C         -0.83827       -2.60072        1.27513
C         -0.94672       -2.51169       -1.17978
C         -2.07016       -3.25547        1.27871
C         -2.18401       -3.15939       -1.12037
C         -2.76164       -3.53809        0.09430
H         -2.50557       -3.55091        2.23743
H         -2.70675       -3.38162       -2.05446
C          2.19208        1.82191        0.02119
C          2.18013        2.50951       -1.20014
C          2.21552        2.47677        1.26026
C          2.17419        3.90453       -1.15322
C          2.20859        3.87248        1.25081
C          2.19039        4.60375        0.05833
H          2.16059        4.46201       -2.09367
H          2.22209        4.40464        2.20581
C          2.22398        6.10280        0.07819
H          1.73066        6.53062       -0.80567
H          1.73748        6.50659        0.97709
H          3.26518        6.46545        0.07933
C         -4.09429       -4.22443        0.14069
H         -4.01845       -5.20357        0.63825
H         -4.82402       -3.63055        0.71401
H         -4.50363       -4.38679       -0.86533
C          2.23082        1.69861        2.54176
H          1.29474        1.13098        2.67472
H          3.05645        0.97025        2.56336
H          2.34253        2.36575        3.40578
C          2.15864        1.76606       -2.50199
H          2.98794        1.04472       -2.57006
H          1.22263        1.19508       -2.62012
H          2.23796        2.45694       -3.35081
C         -0.11585       -2.27726        2.54745
H          0.91300       -2.66952        2.54031
H         -0.04496       -1.18679        2.69535
H         -0.63632       -2.70141        3.41540
C         -0.32806       -2.11916       -2.48755
H         -0.22752       -1.02415       -2.57144
H          0.68295       -2.54217       -2.59676
H         -0.93574       -2.46795       -3.33218
Au        -0.69137        0.87039        0.04774
H         -1.95511        1.97790        0.07108
Si        -3.38696        1.14750       -0.03702
C         -3.60554        0.04545        1.46779
H         -3.07570       -0.90100        1.26991
H         -3.07174        0.52179        2.30829
C         -5.06007       -0.22276        1.86003
H         -5.63134       -0.69361        1.04600
H         -5.11156       -0.89847        2.72731
H         -5.58632        0.70207        2.14029
C         -3.52955        0.28758       -1.70499
H         -3.53192        1.06916       -2.48453
H         -2.61964       -0.31098       -1.87220
C         -4.75951       -0.61372       -1.83030
H         -4.81729       -1.05836       -2.83540
H         -4.72158       -1.44424       -1.10962
H         -5.70052       -0.06881       -1.66280
C         -4.35431        2.76080        0.05077
H         -4.29319        3.13167        1.08878
H         -3.82514        3.50727       -0.56587
C         -5.81119        2.65375       -0.40349
H         -6.38207        1.92110        0.18637
H         -6.32393        3.62197       -0.30227
H         -5.88560        2.35827       -1.46106
