71
per_phme_auhsi.log	Energy: -1088733.8329839
C         -2.44779       -3.64268       -0.09168
C         -2.40875       -2.26517       -0.04635
C         -3.60425       -1.50408       -0.06451
C         -4.86229       -2.16643       -0.11947
C         -4.87584       -3.58472       -0.15990
C         -3.69875       -4.29442       -0.14862
H         -1.52676       -4.22462       -0.08258
C         -3.55737       -0.08818       -0.03228
C         -6.04010       -1.37533       -0.13291
H         -5.83602       -4.10268       -0.20184
H         -3.72044       -5.38553       -0.18319
C         -5.96063       -0.00334       -0.09616
C         -4.71543        0.65952       -0.04677
H         -7.01045       -1.87407       -0.17382
H         -6.87369        0.59533       -0.10689
H         -4.67175        1.74806       -0.02203
C         -1.13425       -0.20148        0.03621
N         -2.27000        0.50378        0.01006
N         -1.19071       -1.53845        0.01708
C         -2.17136        1.93842        0.02937
C         -2.15454        2.61232        1.24859
C         -2.10995        2.64140       -1.17163
C         -2.05601        4.00036        1.25912
H         -2.22196        2.04806        2.18125
C         -2.01195        4.02940       -1.14504
H         -2.14276        2.09991       -2.11951
C         -1.97984        4.73279        0.06661
H         -2.04246        4.52766        2.21619
H         -1.96368        4.57973       -2.08789
C          0.03929       -2.27973        0.05928
C          0.72885       -2.54450       -1.12271
C          0.50876       -2.76719        1.27575
C          1.90840       -3.28071       -1.07674
H          0.33336       -2.17805       -2.07266
C          1.68681       -3.50972        1.30621
H         -0.05058       -2.56822        2.19231
C          2.40971       -3.77495        0.13607
H          2.44746       -3.48502       -2.00532
H          2.05393       -3.88997        2.26257
C          3.69495       -4.54568        0.17476
H          4.55670       -3.87601        0.02087
H          3.83699       -5.05125        1.13918
H          3.73074       -5.30471       -0.62038
C         -1.84684        6.22585        0.08795
H         -2.35297        6.66343        0.95976
H         -0.78568        6.51986        0.14415
H         -2.26532        6.68187       -0.81992
Au         0.64819        0.80041        0.08753
H          1.98120        1.82118        0.15054
Si         3.35582        0.91750       -0.05360
C          3.41067        0.17735       -1.78375
H          2.45463       -0.33465       -1.97965
H          3.46403        1.01095       -2.50521
C          4.56839       -0.80067       -1.99241
H          4.49168       -1.66430       -1.31474
H          4.57201       -1.19215       -3.02094
H          5.54948       -0.33278       -1.82051
C          3.54402       -0.30971        1.35570
H          3.04647        0.12189        2.24120
H          2.96515       -1.21151        1.09755
C          4.98992       -0.67492        1.69866
H          5.02198       -1.42196        2.50619
H          5.52900       -1.10124        0.83930
H          5.56124        0.19937        2.04498
C          4.42476        2.45719        0.12721
H          3.92999        3.27920       -0.41778
H          4.41126        2.75165        1.19110
C          5.86095        2.29479       -0.37419
H          5.89213        2.07588       -1.45240
H          6.43658        3.21907       -0.21624
H          6.39742        1.48604        0.14413
