47
thiazol_phme_auhsi.log	Energy: -942678.0258201
C         -2.18880       -0.72251        0.01880
N         -2.58935        0.52867        0.05068
C         -4.74783       -0.53429        0.03359
H         -5.55371       -0.73975        0.74965
H         -5.16116       -0.56789       -0.98476
C         -4.01612        0.76600        0.32984
H         -4.37420        1.59796       -0.29215
H         -4.10889        1.06753        1.38693
C         -1.68464        1.64116        0.00302
C         -1.44055        2.28125       -1.20936
C         -0.56246        3.36114       -1.24590
H         -0.36323        3.85429       -2.20033
C          0.07322        3.82199       -0.08586
C         -0.19660        3.16250        1.12200
H          0.28770        3.50353        2.04051
C         -1.06826        2.07947        1.17466
S         -3.46830       -1.84500        0.15910
Au        -0.26900       -1.31264       -0.19876
H          1.25517       -1.97388       -0.48893
Si         2.41823       -0.88367       -0.00935
C          2.44613       -0.81930        1.87785
H          1.56173       -1.35502        2.26158
H          3.31007       -1.42319        2.20462
C          2.51396        0.58193        2.48202
H          1.67412        1.21054        2.14960
H          2.48159        0.53823        3.58076
H          3.44313        1.10343        2.20740
C          2.15392        0.75340       -0.89765
H          1.79616        0.51753       -1.91486
H          1.32192        1.28229       -0.40393
C          3.38152        1.66322       -0.97450
H          3.12367        2.61712       -1.45917
H          3.78590        1.90401        0.02001
H          4.19291        1.21021       -1.56270
C          3.78308       -1.95688       -0.72686
H          3.59619       -2.99639       -0.40668
H          3.68466       -1.95608       -1.82582
C          5.18844       -1.52393       -0.30316
H          5.30991       -1.53316        0.79116
H          5.94606       -2.20642       -0.71586
H          5.43738       -0.51183       -0.65416
C          1.00312        4.99636       -0.12515
H          0.49131        5.90708        0.22634
H          1.87347        4.84155        0.52875
H          1.36453        5.19375       -1.14341
H         -1.92512        1.92640       -2.12165
H         -1.26548        1.56812        2.11981
