62
thiazol_dipp_auhsi.log	Energy: -1065796.8745690
C         -1.58090       -1.12419        0.33222
N         -2.24217       -0.00694        0.13756
C         -4.10991       -1.44304        0.67537
H         -4.75115       -1.60530        1.55116
H         -4.63327       -1.81235       -0.21771
C         -3.65726        0.00425        0.54725
H         -4.24556        0.56410       -0.18989
H         -3.72371        0.53414        1.50920
C         -1.61091        1.20223       -0.33167
C         -1.51042        1.40476       -1.72649
C         -0.88592        2.57968       -2.15965
H         -0.79579        2.75820       -3.23389
C         -0.38401        3.51299       -1.26252
C         -0.50550        3.28663        0.10063
H         -0.11775        4.02467        0.80763
C         -1.12600        2.13682        0.60826
C         -1.25518        2.08741        2.12823
H         -0.39449        2.67926        2.47992
C         -1.97220        0.45048       -2.82355
H         -2.00782        1.08834       -3.72103
H          0.09988        4.42141       -1.62746
C         -2.50067        2.85358        2.58866
H         -2.51835        2.92942        3.68629
H         -2.51699        3.87276        2.17684
H         -3.43388        2.36190        2.27489
C         -1.12760        0.73987        2.83270
H         -2.01723        0.10117        2.73905
H         -0.26148        0.16671        2.47114
H         -0.98300        0.91217        3.90929
C         -3.37109       -0.14490       -2.69010
H         -3.41248       -0.96448       -1.95923
H         -4.12038        0.61640       -2.42691
H         -3.67352       -0.57641       -3.65558
C         -0.93811       -0.63704       -3.12078
H          0.06274       -0.20740       -3.27100
H         -0.87159       -1.37390       -2.30473
H         -1.21355       -1.18391       -4.03508
S         -2.56356       -2.41242        0.86979
Au         0.41824       -1.35047        0.11020
H          2.05129       -1.73191       -0.07606
Si         2.92992       -0.32217        0.05730
C          2.87171        0.28926        1.84414
H          2.05106       -0.22611        2.36945
H          3.79339       -0.06462        2.33696
C          2.72535        1.80195        1.99992
H          1.83989        2.18340        1.46858
H          2.62404        2.08034        3.05958
H          3.60039        2.34145        1.60759
C          2.35519        0.89121       -1.25869
H          2.11267        0.29519       -2.15523
H          1.40161        1.33708       -0.92958
C          3.35377        1.99180       -1.62089
H          2.91690        2.67756       -2.36245
H          3.64110        2.59806       -0.74927
H          4.27494        1.58228       -2.06069
C          4.52775       -1.22158       -0.35201
H          4.55747       -2.14619        0.24979
H          4.48582       -1.54671       -1.40554
C          5.78115       -0.38442       -0.08686
H          5.84598       -0.06218        0.96410
H          6.69002       -0.96606       -0.30090
H          5.81940        0.51970       -0.71192
