44
thiazol_terbutyl_auhsi.log	Energy: -871065.0028373
C         -1.95471        0.63784        0.05161
N         -2.96187       -0.23104        0.20464
C         -4.17954        0.35259        0.51986
H         -5.06118       -0.26744        0.65965
C         -4.12516        1.70013        0.62200
H         -4.93991        2.38244        0.85921
C         -2.91165       -1.73404        0.05113
C         -1.49668       -2.22748       -0.19940
H         -0.81929       -1.96826        0.62723
H         -1.53065       -3.32340       -0.27112
H         -1.08253       -1.84928       -1.14545
C         -3.79883       -2.09929       -1.13892
H         -3.77774       -3.18783       -1.28834
H         -4.84754       -1.80828       -0.98518
H         -3.43624       -1.61895       -2.05965
C         -3.42553       -2.35051        1.35342
H         -3.35764       -3.44491        1.28385
H         -2.81781       -2.02340        2.20998
H         -4.47652       -2.10451        1.55759
S         -2.52078        2.22612        0.31321
Au         0.00464        0.50245       -0.46822
H          1.54566        0.61219       -1.11619
Si         2.68078       -0.01764       -0.08258
C          4.07213        0.77957       -1.06465
H          3.80022        0.73851       -2.13310
H          4.09434        1.85167       -0.80224
C          5.44539        0.13746       -0.85546
H          5.45794       -0.91193       -1.18679
H          6.21339        0.66831       -1.43733
H          5.76364        0.15807        0.19737
C          2.58846       -1.88690       -0.25611
H          1.54407       -2.20652       -0.10479
H          2.82935       -2.13633       -1.30419
C          3.50588       -2.64250        0.70839
H          3.43868       -3.72812        0.54366
H          4.56239       -2.36141        0.58593
H          3.23385       -2.45566        1.75849
C          2.51325        0.63287        1.67514
H          2.08183        1.64733        1.62764
H          1.77161        0.01333        2.20834
C          3.83810        0.67015        2.44345
H          4.56322        1.34690        1.96744
H          3.68105        1.03314        3.46991
H          4.30754       -0.32213        2.51715
