56
thiazol_ad_auhsi.log	Energy: -1016526.4297502
N         -2.44200       -1.03604        0.61647
C         -1.36631       -1.73628        0.21643
C         -3.41562       -1.77190        1.27296
H         -4.32208       -1.29358        1.62982
C         -3.10082       -3.08265        1.39622
H         -3.69486       -3.86451        1.86583
S         -1.56623       -3.36605        0.67114
Au         0.34067       -1.20536       -0.83372
H          1.66382       -0.83841       -1.68232
C         -2.57100        0.43401        0.36312
C         -2.54584        0.69319       -1.14935
C         -3.88588        0.98173        0.93055
C         -1.40747        1.16406        1.04733
H         -3.38670        0.16034       -1.62322
H         -1.61653        0.28204       -1.57790
C         -2.63206        2.19653       -1.41875
H         -3.93714        0.80377        2.01761
H         -4.74465        0.47346        0.46204
C         -3.97980        2.48878        0.65752
H         -0.45836        0.75200        0.66635
H         -1.44105        0.96576        2.13190
C         -1.49537        2.66422        0.76274
H         -2.59690        2.36218       -2.50694
C         -3.94300        2.74234       -0.85049
C         -1.44532        2.89763       -0.75056
H         -4.93034        2.85541        1.07535
C         -2.80843        3.20929        1.32805
H         -0.64372        3.16877        1.24915
H         -4.80143        2.25627       -1.34259
H         -4.02906        3.82206       -1.05305
H         -0.50088        2.50616       -1.16694
H         -1.47283        3.97794       -0.96770
H         -2.88166        4.29393        1.14820
H         -2.84195        3.06313        2.42054
Si         4.05799        0.78673        0.07413
C          5.50628        1.72507        0.73512
H          5.72007        2.51493       -0.01334
H          5.10732        2.30270        1.59429
C          6.75925        0.93891        1.10968
H          7.19510        0.42544        0.24024
H          7.52939        1.61169        1.51181
H          6.55232        0.17996        1.87855
C          4.14286       -1.04877       -0.01081
H          3.58197       -1.38864       -0.89763
H          5.19868       -1.35062       -0.10419
C          3.50035       -1.65455        1.25558
H          3.64253       -2.74464        1.24105
H          3.94490       -1.28108        2.19182
H          2.41458       -1.46923        1.26963
C          2.55652        1.76002       -0.34984
H          2.39386        1.56686       -1.43037
H          1.70711        1.20049        0.08996
C          2.54583        3.24622       -0.00823
H          3.35955        3.79500       -0.50484
H          1.60025        3.69929       -0.33815
H          2.63261        3.42264        1.07416
