53
thiazol_mes_auhsi.log	Energy: -991935.2770076
C         -2.15636       -0.77330        0.02776
N         -2.47727        0.49877        0.09013
C         -4.69372       -0.42263       -0.05730
H         -5.54440       -0.60042        0.61275
H         -5.05869       -0.39472       -1.09420
C         -3.89595        0.81592        0.32093
H         -4.17646        1.69359       -0.27752
H         -4.01772        1.07783        1.38500
C         -1.49185        1.54534        0.07258
C         -1.18216        2.14155       -1.15681
C         -0.22231        3.15704       -1.16002
H          0.03315        3.63505       -2.10930
C          0.42363        3.56723        0.00902
C          0.08358        2.93810        1.21254
H          0.57743        3.24908        2.13728
C         -0.87656        1.92779        1.27556
S         -3.50661       -1.81759        0.07708
Au        -0.25160       -1.43731       -0.08674
H          1.27720       -2.14111       -0.19902
Si         2.41484       -0.92998       -0.05225
C          2.36933       -0.23542        1.69599
H          1.32667        0.01278        1.95338
H          2.67023       -1.04110        2.38766
C          3.24776        1.00357        1.88210
H          2.90526        1.83490        1.24740
H          3.21459        1.35354        2.92489
H          4.30345        0.81092        1.63916
C          2.18757        0.34017       -1.41817
H          1.76223       -0.17839       -2.29471
H          1.41965        1.05983       -1.08797
C          3.46947        1.07314       -1.82160
H          3.25824        1.82619       -2.59571
H          3.93411        1.59919       -0.97434
H          4.22087        0.38470       -2.23634
C          3.81243       -2.15176       -0.34732
H          3.57245       -3.08147        0.19612
H          3.80573       -2.41916       -1.41824
C          5.19080       -1.64201        0.07955
H          5.23290       -1.44083        1.16081
H          5.96638       -2.39090       -0.13930
H          5.47672       -0.71672       -0.44260
C         -1.82387        1.67379       -2.42883
H         -1.50985        2.29370       -3.27800
H         -1.54727        0.63035       -2.65301
H         -2.92331        1.71124       -2.37916
C         -1.23255        1.28055        2.58170
H         -0.52984        1.58005        3.36986
H         -2.23956        1.57528        2.91917
H         -1.21998        0.18129        2.51645
C          1.46927        4.64123       -0.01763
H          1.24473        5.43239        0.71340
H          2.45879        4.23319        0.24510
H          1.55005        5.10543       -1.00934
