88
triazol_dipp_auhsi.log	Energy: -1152541.6416290
N          0.45158        1.86422        0.81671
C          0.92246        0.72399        0.29977
N          2.24144        0.75295        0.58899
C         -0.91836        2.28357        0.77181
C         -1.75747        1.91314        1.83761
C         -3.09175        2.31752        1.75934
H         -3.78120        2.05935        2.56449
C         -3.55582        3.04679        0.66704
C         -2.69962        3.38341       -0.37490
H         -3.08170        3.95054       -1.22627
C         -1.35180        3.00996       -0.34588
C         -0.42902        3.35622       -1.49654
H          0.59598        3.07902       -1.20475
C         -1.22461        1.15222        3.03487
H         -0.37493        0.54111        2.68496
C          3.18170       -0.27816        0.25263
C          3.79523       -0.23117       -1.00883
C          4.67903       -1.26843       -1.32005
H          5.17947       -1.27485       -2.29056
C          4.93031       -2.29080       -0.41158
C          4.30537       -2.30292        0.83200
H          4.51632       -3.11352        1.53191
C          3.41174       -1.29328        1.19680
C          2.68654       -1.33414        2.52871
H          2.28473       -0.32746        2.72802
C          3.49968        0.86172       -2.01722
H          2.90965        1.64261       -1.51132
C          2.49493        1.91847        1.26347
H          3.48298        2.20635        1.61824
C         -0.69288        2.12810        4.08927
H          0.07797        2.79191        3.67294
H         -1.50858        2.75905        4.47497
H         -0.25795        1.57995        4.93910
C         -2.24448        0.19208        3.63846
H         -3.06743        0.72629        4.13694
H         -2.68482       -0.46960        2.87719
H         -1.76446       -0.43829        4.40155
C         -0.78738        2.53991       -2.73938
H         -1.80301        2.77587       -3.09314
H         -0.08711        2.75435       -3.56083
H         -0.74768        1.45764       -2.53296
C         -0.41925        4.85614       -1.78580
H          0.31137        5.08785       -2.57519
H         -1.40145        5.21032       -2.13425
H         -0.15002        5.43349       -0.88943
C          1.49355       -2.29084        2.45619
H          0.93124       -2.28536        3.40268
H          0.80130       -2.01127        1.64592
H          1.82904       -3.32233        2.26612
C          3.60954       -1.68219        3.69373
H          3.98326       -2.71509        3.62672
H          4.47959       -1.01055        3.73548
H          3.06630       -1.59668        4.64648
C          2.64310        0.31894       -3.16258
H          1.70510       -0.12311       -2.78813
H          2.38250        1.12242       -3.86810
H          3.17792       -0.46321       -3.72314
C          4.77360        1.52769       -2.53432
H          5.38745        1.91962       -1.70992
H          5.39506        0.82609       -3.11109
H          4.52234        2.36565       -3.20151
H          5.62594       -3.09058       -0.67517
H         -4.60297        3.35572        0.62904
N          1.40601        2.61168        1.41273
Au        -0.14040       -0.67484       -0.69238
H         -0.92764       -1.83445       -1.61826
Si        -2.44867       -2.00868       -0.93232
C         -2.95916       -3.16022       -2.32961
H         -2.58459       -2.73105       -3.27464
H         -2.41908       -4.11385       -2.19776
C         -4.46744       -3.39683       -2.43030
H         -5.01233       -2.46239       -2.63334
H         -4.69874       -4.09066       -3.25217
H         -4.88617       -3.83196       -1.51063
C         -3.41488       -0.39283       -0.90907
H         -2.79012        0.41220       -0.48813
H         -3.60605       -0.10752       -1.95824
C         -4.72243       -0.47709       -0.11907
H         -5.26431        0.47902       -0.16959
H         -5.39821       -1.25827       -0.49834
H         -4.53616       -0.68447        0.94581
C         -2.24467       -2.86828        0.72846
H         -1.33137       -3.48493        0.67026
H         -2.03788       -2.10010        1.49276
C         -3.43404       -3.73746        1.14367
H         -3.60406       -4.55896        0.43175
H         -3.25785       -4.19449        2.12888
H         -4.36848       -3.16120        1.21426
