58
triazol_phme_auhsi.log	Energy: -906291.3054880
N          2.43385        1.64842        0.00980
C          1.14012        1.26072       -0.08640
N          0.45666        2.41406       -0.03038
C          3.57235        0.78742        0.00066
C          3.72838       -0.14068       -1.02720
C          4.83498       -0.98303       -1.01856
H          4.95612       -1.71063       -1.82467
C          5.80256       -0.90582       -0.00793
C          5.62067        0.04202        1.00802
H          6.35531        0.11531        1.81347
C          4.51377        0.88392        1.02304
C          7.01265       -1.78904       -0.02896
H          6.81090       -2.73996       -0.54100
H          7.36907       -2.00982        0.98679
H          7.83956       -1.29554       -0.56597
C         -0.96310        2.53594       -0.09166
C         -1.64410        2.02983       -1.19598
C         -3.03396        2.09522       -1.22588
H         -3.56865        1.70380       -2.09464
C         -3.75621        2.66744       -0.17103
C         -3.03892        3.18708        0.91682
H         -3.58088        3.64369        1.74862
C         -1.65061        3.12876        0.96410
C         -5.25146        2.75581       -0.21648
H         -5.56851        3.74920       -0.57397
H         -5.69395        2.61377        0.77981
H         -5.68194        2.00936       -0.89829
C          2.45020        3.01447        0.14137
H          3.36305        3.60106        0.22868
N          1.24570        3.49733        0.12176
H         -1.09910        3.53118        1.81559
H         -1.08638        1.60172       -2.03158
H          2.99633       -0.19187       -1.83607
H          4.37302        1.59811        1.83753
Au         0.32076       -0.58980       -0.10217
H         -0.27473       -2.15724       -0.05531
Si        -1.94083       -2.04015        0.12745
C         -2.03269       -3.83427        0.68509
H         -1.28045       -4.40742        0.11696
H         -1.70745       -3.87493        1.73930
C         -3.41016       -4.47837        0.51351
H         -3.71442       -4.50995       -0.54374
H         -3.40167       -5.51652        0.87750
H         -4.19594       -3.94596        1.06978
C         -2.62781       -1.73863       -1.59620
H         -2.10376       -0.87265       -2.03291
H         -2.35606       -2.60450       -2.22440
C         -4.13830       -1.49722       -1.62352
H         -4.49253       -1.34345       -2.65400
H         -4.70483       -2.34490       -1.21009
H         -4.41327       -0.60216       -1.04486
C         -2.50182       -0.80498        1.43438
H         -1.72792       -0.75633        2.21937
H         -2.53141        0.19659        0.97299
C         -3.85493       -1.14379        2.06665
H         -3.82607       -2.10256        2.60547
H         -4.14356       -0.37099        2.79482
H         -4.66147       -1.20558        1.32102
