70
triazol_mes_auhsi.log	Energy: -1004802.6348677
N          2.30601        1.48297       -0.00190
C          1.01150        1.09730       -0.00797
N          0.32786        2.24748       -0.01198
C          3.43662        0.60034        0.00430
C          3.96675        0.18654       -1.22466
C          5.05927       -0.68056       -1.18912
H          5.49218       -1.01887       -2.13418
C          5.61158       -1.12627        0.01638
C          5.03749       -0.69121        1.21556
H          5.45334       -1.03779        2.16527
C          3.94448        0.17571        1.23894
C          3.32398        0.62141        2.53001
H          2.28284        0.26917        2.61639
H          3.30220        1.71893        2.61971
H          3.88216        0.22767        3.38864
C          6.80990       -2.02671        0.02315
H          6.84055       -2.66621       -0.86991
H          6.82704       -2.67093        0.91315
H          7.73776       -1.43120        0.03169
C          3.36983        0.64368       -2.52282
H          2.32838        0.29793       -2.62866
H          3.93988        0.25227       -3.37467
H          3.35564        1.74185       -2.60610
C         -1.10064        2.34573       -0.01771
C         -1.76701        2.43880        1.21028
C         -3.16180        2.47871        1.17963
H         -3.70649        2.55049        2.12493
C         -3.87638        2.42864       -0.02252
C         -3.16197        2.34280       -1.22203
H         -3.70698        2.30941       -2.16913
C         -1.76676        2.30477       -1.24854
C         -1.00601        2.21809       -2.53763
H         -0.29448        3.05242       -2.63616
H         -1.68579        2.24856       -3.39846
H         -0.42176        1.28493       -2.60150
C         -5.37407        2.49688       -0.02411
H         -5.71175        3.54581        0.00855
H         -5.80279        1.99156        0.85317
H         -5.80046        2.04467       -0.93034
C         -1.00446        2.47427        2.49991
H         -1.68256        2.58108        3.35587
H         -0.29435        3.31511        2.51970
H         -0.42033        1.55011        2.64454
C          2.32881        2.85441       -0.00158
H          3.24661        3.44014        0.00327
N          1.12375        3.33945       -0.00785
Au         0.19539       -0.74614       -0.01461
H         -0.39753       -2.32038       -0.02311
Si        -2.07009       -2.19411        0.00639
C         -2.64623       -1.27947        1.54512
H         -1.89315       -1.43451        2.33674
H         -2.63568       -0.19950        1.31845
C         -4.02630       -1.70683        2.05152
H         -4.04140       -2.76451        2.35432
H         -4.31730       -1.11400        2.93174
H         -4.81019       -1.56773        1.29218
C         -2.22529       -4.06563        0.11349
H         -1.46841       -4.50823       -0.55627
H         -1.93603       -4.36813        1.13501
C         -3.61158       -4.60639       -0.24296
H         -3.64095       -5.70098       -0.13634
H         -4.40157       -4.19598        0.40352
H         -3.88136       -4.37627       -1.28482
C         -2.68320       -1.46951       -1.61812
H         -2.14160       -0.52900       -1.81257
H         -2.39977       -2.16230       -2.42919
C         -4.18874       -1.19491       -1.63014
H         -4.46410       -0.44709       -0.87149
H         -4.50427       -0.79797       -2.60682
H         -4.78382       -2.10066       -1.44068
