56
triazol_terbutyl_auhsi.log	Energy: -764588.2651015
N          2.27341        1.46721        0.15549
C          1.82708        0.21064        0.01135
N          2.92458       -0.56271        0.21434
C          3.96871        0.28157        0.46964
H          4.98759       -0.03345        0.67288
C          1.48741        2.73544        0.04002
C          2.98542       -2.05674        0.16896
C          2.57260       -2.51972       -1.22643
H          3.22414       -2.08212       -1.99679
H          2.65108       -3.61395       -1.28835
H          1.53138       -2.24477       -1.45600
C          2.05823       -2.61454        1.24663
H          2.11676       -3.71184        1.24902
H          2.34742       -2.25063        2.24347
H          1.00961       -2.33314        1.06450
C          4.41824       -2.49855        0.44955
H          4.45642       -3.59541        0.41459
H          5.12309       -2.12298       -0.30682
H          4.75866       -2.19169        1.44951
C          0.90395        2.81542       -1.36921
H          0.21521        1.98219       -1.57814
H          0.34391        3.75438       -1.48082
H          1.70256        2.80027       -2.12497
C          2.42889        3.90987        0.27728
H          1.84633        4.83745        0.19012
H          2.88099        3.87329        1.27673
H          3.23963        3.93589       -0.46212
C          0.39522        2.72318        1.10783
H          0.83216        2.64290        2.11388
H         -0.17891        3.65884        1.05574
H         -0.30554        1.88657        0.96587
N          3.58453        1.52065        0.43750
Au        -0.06325       -0.40435       -0.42185
H         -1.52700       -1.04800       -0.92946
Si        -2.77580       -0.36072       -0.07195
C         -3.04480        1.38131       -0.72679
H         -2.07961        1.91226       -0.75418
H         -3.36756        1.29354       -1.77883
C         -4.05645        2.18995        0.08867
H         -3.71599        2.33954        1.12487
H         -4.20645        3.18690       -0.35158
H         -5.04254        1.70384        0.13189
C         -2.52140       -0.49412        1.78893
H         -1.90330       -1.38664        1.98703
H         -1.92179        0.36832        2.12679
C         -3.82820       -0.58446        2.58286
H         -3.62351       -0.64010        3.66224
H         -4.47735        0.28857        2.41934
H         -4.40427       -1.48262        2.31494
C         -3.98595       -1.62329       -0.76391
H         -3.71186       -1.81579       -1.81514
H         -3.82190       -2.57609       -0.23113
C         -5.45350       -1.19710       -0.68248
H         -5.64453       -0.28471       -1.26756
H         -6.10835       -1.98273       -1.08763
H         -5.77865       -1.00410        0.35052
