80
triazol_ad_auhsi.log	Energy: -1055601.0007607
N          2.03677        1.67741        0.03325
C          0.75024        1.24346        0.00207
N          0.01990        2.36751        0.02853
C         -1.45856        2.48008        0.01668
C         -1.86364        3.95662        0.06344
C         -2.01049        1.85115       -1.26870
C         -2.03387        1.76432        1.24494
H         -1.43190        4.48850       -0.79736
H         -1.44840        4.42794        0.96662
C         -3.39238        4.06087        0.05292
H         -1.69727        0.79471       -1.32866
H         -1.57848        2.36654       -2.14203
C         -3.53743        1.95265       -1.27413
H         -1.61859        2.21863        2.15941
H         -1.72096        0.70627        1.23827
C         -3.56056        1.86671        1.22928
H         -3.66601        5.12674        0.08704
C         -3.94496        3.42699       -1.22586
C         -3.96781        3.34127        1.27505
H         -3.92075        1.48708       -2.19639
C         -4.09992        1.22276       -0.05114
H         -3.96039        1.33963        2.11074
H         -3.56055        3.95691       -2.11276
H         -5.04277        3.51708       -1.25085
H         -3.59958        3.80869        2.20301
H         -5.06593        3.43049        1.28630
H         -5.20079        1.26398       -0.06019
H         -3.82297        0.15558       -0.08672
C          3.25647        0.83099        0.02261
C          3.29701       -0.00372       -1.26456
C          4.50418        1.72096        0.07143
C          3.25951       -0.08901        1.25101
H          3.28289        0.66921       -2.13792
H          2.39403       -0.63587       -1.32814
C          4.55045       -0.88195       -1.26890
H          4.49209        2.33935        0.98446
H          4.51877        2.39955       -0.79773
C          5.76314        0.84646        0.06051
H          2.35569       -0.72301        1.24442
H          3.21875        0.52346        2.16701
C          4.51324       -0.96669        1.23324
H          4.55701       -1.48210       -2.19233
C          5.79337        0.00924       -1.21968
C          4.52619       -1.80592       -0.04777
H          6.64306        1.50726        0.09599
C          5.75615       -0.07548        1.28153
H          4.49298       -1.62799        2.11373
H          5.82885        0.66394       -2.10612
H          6.70477       -0.60899       -1.24395
H          3.63852       -2.46092       -0.08316
H          5.40789       -2.46617       -0.05701
H          6.66707       -0.69480        1.29102
H          5.76453        0.51778        2.21085
C          1.99962        3.04322        0.07665
H          2.87361        3.68616        0.10891
N          0.77616        3.47650        0.07450
Au         0.11876       -0.69068       -0.07827
H         -0.11534       -2.34666       -0.18487
Si        -1.68839       -2.80775       -0.02111
C         -1.17819       -4.61998       -0.02937
H         -0.36429       -4.73746       -0.76507
H         -0.72797       -4.84359        0.95363
C         -2.30680       -5.60267       -0.34780
H         -2.70976       -5.44363       -1.35939
H         -1.94181       -6.63968       -0.30556
H         -3.14496       -5.52438        0.36034
C         -2.64228       -2.28513       -1.55371
H         -2.48451       -1.20833       -1.72763
H         -2.18771       -2.79756       -2.41919
C         -4.14155       -2.58250       -1.47109
H         -4.65063       -2.28441       -2.39970
H         -4.34794       -3.65176       -1.31635
H         -4.62124       -2.03134       -0.64779
C         -2.40658       -2.23518        1.62072
H         -1.57359       -2.11401        2.33427
H         -2.83583       -1.22894        1.48459
C         -3.45475       -3.18831        2.20139
H         -3.02942       -4.18035        2.41449
H         -3.85390       -2.79660        3.14875
H         -4.30926       -3.33176        1.52312
