68
5s_dih_dIdipp_au.log	Energy: -812428.2980195
N          0.99469        0.22509        1.05113
C         -0.09894        0.07957        0.31757
N         -1.20419        0.16080        1.04689
C          0.65078        0.34460        2.47449
H          1.17396        1.20085        2.92242
H          0.97124       -0.56737        3.00390
C         -0.87100        0.51878        2.43528
H         -1.40390       -0.13178        3.13837
H         -1.17726        1.55749        2.62565
C          2.34645        0.11428        0.59071
C          3.06109        1.29601        0.32020
C          4.38509        1.16882       -0.10621
H          4.96504        2.06601       -0.33238
C          4.97485       -0.08252       -0.24769
C          4.24899       -1.23445        0.03241
H          4.72565       -2.21079       -0.07940
C          2.92004       -1.16486        0.45956
C          2.16275       -2.43937        0.77011
H          1.12354       -2.16683        1.00852
C          2.42374        2.66511        0.42957
H          1.45505        2.54148        0.93676
C         -2.54688        0.03410        0.55511
C         -3.12162       -1.25645        0.48105
C         -4.42321       -1.35718       -0.02182
H         -4.88316       -2.34615       -0.08952
C         -5.13657       -0.23915       -0.43010
C         -4.55618        1.01583       -0.32754
H         -5.12025        1.89881       -0.63863
C         -3.25960        1.19252        0.17135
C         -2.81329        2.64470        0.30312
H         -3.39636        3.16842       -0.47156
C         -2.45718       -2.57806        0.85229
H         -3.30657       -3.26909        0.97317
H         -6.15016       -0.34614       -0.82211
H          6.01278       -0.16063       -0.57873
C          2.13375        3.22831       -0.96254
H          3.06586        3.38953       -1.52589
H          1.50655        2.53848       -1.54953
H          1.60888        4.19319       -0.89423
C          3.25551        3.63394        1.26724
H          3.46772        3.22550        2.26671
H          4.22003        3.86355        0.78964
H          2.72052        4.58716        1.39319
C          2.74017       -3.14436        1.99836
H          2.14199       -4.03273        2.25210
H          3.77347       -3.47850        1.81836
H          2.75805       -2.48096        2.87638
C          2.11306       -3.37200       -0.43890
H          3.11620       -3.72650       -0.71980
H          1.49837       -4.25778       -0.22046
H          1.68304       -2.86702       -1.31875
C         -3.27383        3.23355        1.64109
H         -3.06142        4.31276        1.67916
H         -4.35471        3.09474        1.78573
H         -2.76899        2.76410        2.49918
C         -1.35726        2.98467        0.00808
H         -0.67048        2.70031        0.81724
H         -1.00477        2.51500       -0.92193
H         -1.25725        4.07310       -0.11539
C         -1.69950       -2.63680        2.17543
H         -0.72075       -2.13963        2.12930
H         -2.28330       -2.20185        3.00013
H         -1.50303       -3.68764        2.43541
C         -1.62205       -3.14199       -0.29816
H         -2.19723       -3.16455       -1.23550
H         -0.71345       -2.54510       -0.47232
H         -1.29955       -4.16991       -0.07262
Au        -0.05473       -0.19603       -1.64151
