60
5s_dih_dIad_au.log	Energy: -715489.7046895
N          1.10428       -1.28972       -0.07476
C          0.00002       -0.55282       -0.00001
N         -1.10419       -1.28978        0.07471
C          0.75043       -2.70171        0.12194
H          1.00299       -3.00701        1.15146
H          1.28785       -3.35408       -0.57432
C         -0.75029       -2.70173       -0.12205
H         -1.00282       -3.00700       -1.15159
H         -1.28770       -3.35416        0.57417
C         -2.50988       -0.80569        0.03849
C         -2.79774       -0.09401       -1.29255
C         -3.46596       -2.00340        0.16425
C         -2.79006        0.13855        1.21678
H         -2.59713       -0.78410       -2.12956
H         -2.11036        0.76263       -1.41254
C         -4.24803        0.39329       -1.32594
H         -3.28001       -2.53339        1.11278
H         -3.29597       -2.71603       -0.65817
C         -4.92142       -1.52451        0.12106
H         -2.10872        1.00841        1.18066
H         -2.58155       -0.38792        2.16278
C         -4.23874        0.62989        1.16747
H         -4.42664        0.91232       -2.28078
C         -5.18670       -0.80921       -1.20494
C         -4.48585        1.35513       -0.15845
H         -5.57620       -2.40558        0.20718
C         -5.18185       -0.56850        1.28547
H         -4.40559        1.32098        2.00861
H         -5.03360       -1.49906       -2.05143
H         -6.23606       -0.47752       -1.25132
H         -3.82011        2.23181       -0.24465
H         -5.51732        1.74015       -0.19058
H         -6.23004       -0.23014        1.27055
H         -5.02655       -1.08311        2.24805
C          2.50996       -0.80558       -0.03849
C          2.79780       -0.09393        1.29257
C          3.46604       -2.00329       -0.16429
C          2.79017        0.13874       -1.21670
H          2.59716       -0.78402        2.12957
H          2.11045        0.76273        1.41253
C          4.24812        0.39330        1.32600
H          3.28011       -2.53322       -1.11286
H          3.29601       -2.71596        0.65808
C          4.92151       -1.52446       -0.12104
H          2.10905        1.00873       -1.18035
H          2.58151       -0.38756       -2.16276
C          4.23891        0.62995       -1.16741
H          4.42672        0.91231        2.28086
C          5.18676       -0.80921        1.20500
C          4.48603        1.35516        0.15853
H          5.57627       -2.40555       -0.20716
C          5.18198       -0.56845       -1.28545
H          4.40577        1.32108       -2.00853
H          5.03362       -1.49910        2.05145
H          6.23613       -0.47755        1.25143
H          3.82034        2.23187        0.24473
H          5.51753        1.74011        0.19069
H          6.23018       -0.23011       -1.27053
H          5.02667       -1.08304       -2.24803
Au        -0.00013        1.44625       -0.00002
