62
5s_dibutyl_phme_au.log	Energy: -763189.1790444
N          1.09811        0.61391       -0.01216
C          0.00005       -0.12870        0.00002
N         -1.09811        0.61377        0.01222
C          0.75619        2.04733       -0.16177
H          1.31041        2.61324        0.60029
C         -0.75638        2.04722        0.16189
H         -1.31070        2.61310       -0.60012
C          2.42398        0.10907        0.10863
C          2.91206       -0.82844       -0.80339
C          4.20483       -1.32378       -0.66149
H          4.57731       -2.05599       -1.38222
C          5.04316       -0.88495        0.37108
C          4.53484        0.06411        1.26807
H          5.16391        0.41885        2.08827
C          3.23965        0.55627        1.14692
C          6.44960       -1.38698        0.49638
H          6.57893       -2.35869        0.00062
H          6.74663       -1.49323        1.54944
H          7.15566       -0.68113        0.02872
C         -2.42394        0.10885       -0.10866
C         -2.91181       -0.82920        0.80290
C         -4.20457       -1.32456        0.66091
H         -4.57690       -2.05720        1.38129
C         -5.04309       -0.88519       -0.37128
C         -4.53498        0.06445       -1.26778
H         -5.16421        0.41962       -2.08767
C         -3.23982        0.55663       -1.14655
C         -6.44951       -1.38724       -0.49665
H         -6.74676       -1.49273       -1.54973
H         -7.15552       -0.68180       -0.02831
H         -6.57865       -2.35934       -0.00160
C          1.13602        2.62090       -1.55401
C          2.65808        2.61544       -1.73566
H          3.16556        3.11447       -0.89549
H          3.07247        1.60371       -1.82637
H          2.92029        3.16212       -2.65356
C          0.66858        4.07893       -1.61876
H         -0.42329        4.18673       -1.54304
H          1.12778        4.68685       -0.82475
H          0.96789        4.51475       -2.58296
C          0.48040        1.81526       -2.67554
H         -0.61878        1.84335       -2.62366
H          0.76828        2.22797       -3.65345
H          0.79704        0.76113       -2.66010
C         -1.13631        2.62063        1.55417
C         -0.66918        4.07875        1.61899
H         -1.12854        4.68663        0.82503
H         -0.96853        4.51445        2.58323
H          0.42267        4.18678        1.54323
C         -2.65837        2.61482        1.73582
H         -3.16597        3.11371        0.89565
H         -3.07252        1.60299        1.82655
H         -2.92070        3.16144        2.65372
C         -0.48052        1.81506        2.67565
H          0.61865        1.84344        2.62381
H         -0.76854        2.22762        3.65359
H         -0.79691        0.76086        2.66012
H          2.29040       -1.14739       -1.64345
H          2.86095        1.28245        1.86893
H         -2.86128        1.28328       -1.86817
H         -2.29001       -1.14854        1.64272
Au         0.00012       -2.11336       -0.00001
