50
5s_dih_dImes_au.log	Energy: -664695.9297625
N          1.09896        1.31981       -0.00026
C          0.00000        0.58331       -0.00010
N         -1.09896        1.31979       -0.00018
C          0.76893        2.75288       -0.00042
H          1.20037        3.23561       -0.88950
H          1.20035        3.23579        0.88857
C         -0.76896        2.75287       -0.00045
H         -1.20041        3.23585        0.88849
H         -1.20040        3.23550       -0.88958
C          2.43631        0.81625       -0.00013
C          3.07000        0.57952       -1.22961
C          4.37847        0.09575       -1.20154
H          4.88823       -0.09783       -2.14915
C          5.05215       -0.14677        0.00013
C          4.37816        0.09554        1.20165
H          4.88769       -0.09818        2.14936
C          3.06968        0.57932        1.22946
C          2.35643        0.81672        2.52829
H          1.45526        0.18816        2.61690
H          2.03156        1.86373        2.63583
H          3.00777        0.58588        3.38074
C          6.47167       -0.62798        0.00025
H          6.69504       -1.23078       -0.89092
H          6.69534       -1.22949        0.89221
H          7.16707        0.22763       -0.00050
C          2.35711        0.81715       -2.52859
H          1.45552        0.18920       -2.61721
H          3.00842        0.58571       -3.38089
H          2.03299        1.86436       -2.63637
C         -2.43632        0.81623       -0.00015
C         -3.07002        0.57994        1.22939
C         -4.37851        0.09617        1.20147
H         -4.88829       -0.09706        2.14913
C         -5.05217       -0.14675       -0.00011
C         -4.37815        0.09513       -1.20172
H         -4.88766       -0.09891       -2.14937
C         -3.06967        0.57887       -1.22968
C         -2.35636        0.81573       -2.52857
H         -2.03081        1.86250       -2.63622
H         -3.00789        0.58521       -3.38096
H         -1.45561        0.18657       -2.61717
C         -6.47169       -0.62795       -0.00018
H         -6.69442       -1.23221       -0.89053
H         -7.16709        0.22766       -0.00289
H         -6.69601       -1.22800        0.89259
C         -2.35715        0.81801        2.52830
H         -3.00846        0.58681        3.38068
H         -2.03307        1.86526        2.63576
H         -1.45554        0.19010        2.61713
Au         0.00001       -1.39185        0.00026
