78
5u_diph_ad_au.log	Energy: -1004186.3698852
N         -1.10000       -0.19848       -0.00049
N          1.10008       -0.19853       -0.00043
C         -0.68551       -1.52772       -0.00052
C          0.00006        0.58327       -0.00033
C          0.68551       -1.52776       -0.00043
Au         0.00001        2.58736        0.00112
C         -2.50434        0.35037       -0.00053
C         -2.72112        1.19284        1.26686
C         -3.56476       -0.75864       -0.00190
C         -2.72028        1.19507       -1.26660
H         -2.58418        0.55126        2.15317
H         -1.96402        1.99319        1.33552
C         -4.11750        1.81799        1.25333
H         -3.44779       -1.40067        0.88099
H         -3.44709       -1.39907       -0.88589
C         -4.97273       -0.14876       -0.00185
H         -1.96315        1.99554       -1.33339
H         -2.58275        0.55506       -2.15394
C         -4.11665        1.82024       -1.25289
H         -4.23200        2.43978        2.15530
C         -5.16784        0.70748        1.24849
C         -4.27315        2.68570        0.00094
H         -5.69573       -0.97924       -0.00285
C         -5.16700        0.70975       -1.25076
H         -4.23051        2.44364       -2.15381
H         -6.18107        1.13989        1.26050
H         -5.07265        0.08979        2.15668
H         -3.52140        3.49535        0.00193
H         -5.26013        3.17466        0.00104
H         -5.07123        0.09371       -2.16001
H         -6.18022        1.14220       -1.26266
C          2.50446        0.35024       -0.00076
C          2.72026        1.19481       -1.26694
C          3.56485       -0.75880       -0.00221
C          2.72145        1.19284        1.26651
H          2.58257        0.55472       -2.15420
H          1.96319        1.99534       -1.33372
C          4.11665        1.81993       -1.25351
H          3.44701       -1.39932       -0.88611
H          3.44804       -1.40074        0.88077
C          4.97285       -0.14897       -0.00243
H          1.96438        1.99322        1.33514
H          2.58460        0.55138        2.15291
C          4.11785        1.81793        1.25271
H          4.23038        2.44325       -2.15451
C          5.16699        0.70942       -1.25144
C          4.27336        2.68552        0.00021
H          5.69581       -0.97947       -0.00343
C          5.16814        0.70738        1.24781
H          4.23252        2.43980        2.15460
H          6.18021        1.14184       -1.26351
H          5.07107        0.09331       -2.16062
H          3.52164        3.49519        0.00122
H          5.26036        3.17443        0.00013
H          5.07304        0.08977        2.15606
H          6.18139        1.13975        1.25966
C         -1.48393       -2.77262       -0.00050
C         -1.81375       -3.39605       -1.20857
C         -1.81444       -3.39539        1.20774
C         -2.49773       -4.60879       -1.20765
H         -1.53335       -2.92417       -2.15346
C         -2.49841       -4.60813        1.20711
H         -1.53452       -2.92300        2.15252
C         -2.84549       -5.21305       -0.00020
H         -2.75549       -5.08797       -2.15455
H         -2.75669       -5.08679        2.15413
H         -3.38080       -6.16509       -0.00009
C          1.48381       -2.77271        0.00034
C          1.81415       -3.39484        1.20896
C          1.81360       -3.39688       -1.20735
C          2.49795       -4.60768        1.20905
H          1.53426       -2.92187        2.15346
C          2.49739       -4.60973       -1.20570
H          1.53331       -2.92550       -2.15253
C          2.84500       -5.21335        0.00211
H          2.75611       -5.08584        2.15637
H          2.75513       -5.08949       -2.15232
H          3.38017       -6.16546        0.00280
