34
5u_dih_dIterbutyl_au.log	Energy: -423725.6274364
N         -0.95642        1.40830        0.00000
C          0.06273        0.51889       -0.00003
N          1.21533        1.22028        0.00009
C          0.91473        2.56471        0.00018
H          1.67555        3.33803        0.00023
C         -0.43588        2.68178        0.00012
H         -1.04893        3.57491        0.00016
C         -2.42775        1.09401       -0.00003
C          2.65182        0.77263       -0.00004
C          2.79782       -0.74084        0.00035
H          2.37046       -1.20438       -0.90184
H          3.87223       -0.97164        0.00095
H          2.36953       -1.20400        0.90229
C          3.30287        1.33576        1.26435
H          4.35600        1.02464        1.30213
H          3.28394        2.43402        1.29127
H          2.80007        0.95738        2.16657
C          3.30236        1.33510       -1.26499
H          4.35548        1.02397       -1.30306
H          2.79917        0.95627       -2.16680
H          3.28336        2.43335       -1.29242
C         -2.77000        0.31332       -1.26736
H         -2.26297       -0.66308       -1.30438
H         -3.85219        0.12590       -1.29996
H         -2.49034        0.88037       -2.16722
C         -3.21247        2.40302       -0.00060
H         -4.28322        2.15990       -0.00078
H         -3.01611        3.00666        0.89732
H         -3.01567        3.00611       -0.89880
C         -2.77025        0.31426        1.26782
H         -2.49085        0.88201        2.16731
H         -3.85244        0.12679        1.30032
H         -2.26315       -0.66207        1.30570
Au        -0.16327       -1.45799        0.00002
