34
5u_dif_tbu_au.log	Energy: -548038.1749965
N          1.10152        1.06913        0.00005
N         -1.10166        1.06901        0.00003
C          0.67873        2.37986        0.00001
C         -0.00002        0.28293        0.00004
C         -0.67900        2.37978        0.00001
Au         0.00010       -1.71137       -0.00001
C         -2.53676        0.56999        0.00003
C          2.53667        0.57027        0.00001
C          3.51547        1.74283        0.00044
H          3.41989        2.37201       -0.89353
H          3.41976        2.37143        0.89480
H          4.52767        1.31692        0.00037
C          2.75911       -0.24764       -1.26969
H          2.12272       -1.14498       -1.31310
H          2.56568        0.35685       -2.16769
H          3.80480       -0.58328       -1.30116
C          2.75906       -0.24835        1.26927
H          2.56522        0.35551        2.16760
H          2.12305       -1.14599        1.31201
H          3.80488       -0.58361        1.30072
C         -3.51570        1.74244        0.00005
H         -3.42019        2.37128        0.89426
H         -3.42008        2.37140       -0.89407
H         -4.52785        1.31640       -0.00005
C         -2.75909       -0.24829       -1.26947
H         -2.56562        0.35596       -2.16763
H         -2.12273       -1.14564       -1.31263
H         -3.80479       -0.58393       -1.30092
C         -2.75904       -0.24827        1.26953
H         -3.80479       -0.58376        1.30108
H         -2.12281       -1.14573        1.31258
H         -2.56537        0.35595        2.16767
F          1.45909        3.41960       -0.00008
F         -1.45946        3.41946       -0.00003
