64
5u_dinme2_mes_au.log	Energy: -831774.6914671
N         -1.08158        0.62946        0.00263
N          1.08152        0.63060       -0.00407
C          0.00025       -0.16049       -0.00088
Au         0.00138       -2.13017       -0.00061
C         -2.43249        0.15730        0.00656
C         -3.13646        0.13300       -1.20547
C         -2.99418       -0.26728        1.21867
C         -4.44964       -0.33518       -1.17654
C         -4.31330       -0.72544        1.19087
C         -5.05792       -0.76404        0.00870
H         -5.01600       -0.36843       -2.11119
H         -4.77347       -1.06016        2.12439
C          2.43275        0.15928       -0.00649
C          2.99583       -0.26596       -1.21778
C          3.13550        0.13625        1.20622
C          4.31504       -0.72359       -1.18832
C          4.44896       -0.33141        1.17893
C          5.05853       -0.76099       -0.00532
H          4.77628       -1.05884       -2.12114
H          5.01443       -0.36365        2.11415
C         -2.20940       -0.25103        2.49837
H         -1.51799       -1.10853        2.55433
H         -1.59517        0.65678        2.59887
H         -2.87701       -0.31042        3.36770
C         -2.49615        0.59121       -2.48054
H         -2.34001        1.68087       -2.46809
H         -1.51115        0.12195       -2.63085
H         -3.12518        0.34894       -3.34655
C         -6.48349       -1.22815        0.00989
H         -7.17032       -0.36612        0.03291
H         -6.71924       -1.80562       -0.89545
H         -6.70711       -1.85140        0.88636
C          2.49374        0.59541        2.48020
H          2.33631        1.68488        2.46586
H          1.50918        0.12516        2.63041
H          3.12241        0.35511        3.34701
C          2.21235       -0.25034       -2.49828
H          1.51901       -1.10631       -2.55343
H          1.60034        0.65875       -2.60092
H          2.88070       -0.31270       -3.36684
C          6.48433       -1.22444       -0.00515
H          7.17070       -0.36228       -0.03561
H          6.72173       -1.79533        0.90389
H          6.70692       -1.85383       -0.87752
C          0.69061        1.97883        0.01560
C         -0.69196        1.97835       -0.01623
N          1.60745        2.98899        0.15132
N         -1.60988        2.98764       -0.15038
C          2.47992        3.33155       -0.95279
H          2.01467        4.05237       -1.65280
H          3.40595        3.78027       -0.56354
H          2.76378        2.43122       -1.51178
C          1.33423        4.05107        1.09437
H          2.28387        4.42441        1.51009
H          0.80707        4.91330        0.64550
H          0.72706        3.66640        1.92530
C         -1.34681        4.04493       -1.10153
H         -2.29975        4.40747       -1.51951
H         -0.82668        4.91481       -0.65925
H         -0.73673        3.65950       -1.92996
C         -2.47944        3.33166        0.95543
H         -2.01454        4.05765        1.65033
H         -3.40901        3.77466        0.56797
H         -2.75717        2.43274        1.51979
