64
5u_dime_ad_au.log	Energy: -763983.3451075
N         -1.09954       -1.25057        0.00002
N          1.09954       -1.25058       -0.00038
C         -0.68792       -2.58450       -0.00014
C          0.00000       -0.47065       -0.00013
C          0.68791       -2.58451       -0.00038
Au         0.00001        1.53979       -0.00035
C          1.54657       -3.80275       -0.00053
H          2.18563       -3.87155        0.88813
H          0.90705       -4.69061       -0.00039
H          2.18527       -3.87157       -0.88944
C         -1.54659       -3.80273       -0.00034
H         -0.90709       -4.69060       -0.00008
H         -2.18577       -3.87149        0.88824
H         -2.18520       -3.87157       -0.88932
C         -2.49604       -0.66744        0.00025
C         -2.69255        0.17901        1.26953
C         -3.59869       -1.73654        0.00064
C         -2.69291        0.17840       -1.26941
H         -2.58134       -0.46890        2.15488
H         -1.90963        0.95265        1.34768
C         -4.06518        0.85441        1.25337
H         -3.51269       -2.37253        0.89131
H         -3.51295       -2.37293       -0.88979
C         -4.98716       -1.08049        0.00067
H         -1.90998        0.95197       -1.34810
H         -2.58192       -0.46995       -2.15447
C         -4.06552        0.85381       -1.25322
H         -4.15754        1.48072        2.15463
C         -5.15430       -0.21754        1.24981
C         -4.18864        1.72552       -0.00012
H         -5.73628       -1.88764        0.00095
C         -5.15462       -0.21814       -1.24885
H         -4.15814        1.47968       -2.15477
H         -6.15211        0.24903        1.25873
H         -5.08267       -0.83612        2.15958
H         -3.40662        2.50628       -0.00041
H         -5.15599        2.25208       -0.00011
H         -5.08322       -0.83717       -2.15833
H         -6.15244        0.24840       -1.25774
C          2.49604       -0.66745       -0.00013
C          2.69288        0.17913       -1.26928
C          3.59868       -1.73654       -0.00035
C          2.69256        0.17827        1.26966
H          2.58189       -0.46869       -2.15473
H          1.90999        0.95278       -1.34753
C          4.06550        0.85452       -1.25269
H          3.51293       -2.37242       -0.89114
H          3.51269       -2.37303        0.88997
C          4.98716       -1.08050        0.00006
H          1.90962        0.95184        1.34821
H          2.58134       -0.47016        2.15462
C          4.06518        0.85367        1.25390
H          4.15811        1.48092       -2.15387
C          5.15462       -0.21742       -1.24896
C          4.18863        1.72551        0.00092
H          5.73628       -1.88765       -0.00012
C          5.15429       -0.21828        1.24971
H          4.15756        1.47946        2.15553
H          6.15243        0.24914       -1.25757
H          5.08322       -0.83591       -2.15880
H          3.40661        2.50628        0.00108
H          5.15598        2.25207        0.00121
H          5.08265       -0.83739        2.15911
H          6.15211        0.24827        1.25890
