42
5u_dime_ptolu_au.log	Energy: -614694.8213749
N         -1.07803        1.17991        0.00394
N          1.07812        1.17988       -0.00397
C          0.00003        0.37995       -0.00001
Au        -0.00009       -1.58974        0.00005
C         -2.43303        0.71935       -0.00227
C         -3.01503        0.30936       -1.19975
C         -3.15449        0.68558        1.18920
C         -4.33160       -0.14170       -1.19670
C         -4.47047        0.23569        1.17426
C         -5.08348       -0.18296       -0.01509
H         -4.78648       -0.46718       -2.13538
H         -5.03414        0.20375        2.10983
C          2.43312        0.71929        0.00225
C          3.15450        0.68529       -1.18928
C          3.01518        0.30953        1.19975
C          4.47047        0.23538       -1.17433
C          4.33175       -0.14155        1.19671
C          5.08355       -0.18304        0.01507
H          5.03407        0.20326       -2.10994
H          4.78669       -0.46684        2.13542
C         -6.51197       -0.63523       -0.02495
H         -6.71299       -1.32473       -0.85627
H         -6.78383       -1.13509        0.91524
H         -7.18753        0.22807       -0.14309
C          6.51204       -0.63533        0.02482
H          6.71385       -1.32255        0.85782
H          6.78298       -1.13777       -0.91427
H          7.18774        0.22828        0.13987
C          0.68544        2.51510       -0.00172
C         -0.68532        2.51512        0.00168
C          1.66739        3.62563        0.00656
H          1.14884        4.58998        0.06997
H          2.35001        3.54445        0.86592
H          2.28430        3.62682       -0.90465
C         -1.66723        3.62568       -0.00664
H         -2.34982        3.54450       -0.86604
H         -2.28419        3.62688        0.90454
H         -1.14865        4.59001       -0.07004
H          2.43832        0.34527        2.12656
H         -2.68282        1.00138        2.12237
H          2.68277        1.00093       -2.12247
H         -2.43810        0.34492       -2.12651
