68
5u_diph_mes_au.log	Energy: -953406.9619757
N         -1.08156        0.11619       -0.02910
N          1.08156        0.11619        0.02908
C          0.00000       -0.67761       -0.00002
Au         0.00002       -2.64667       -0.00002
C         -2.42820       -0.37674       -0.03194
C         -2.97475       -0.82745       -1.24124
C         -3.14215       -0.37467        1.17372
C         -4.29006       -1.29449       -1.21513
C         -4.45268       -0.85139        1.14175
C         -5.04424       -1.31600       -0.03775
H         -4.74297       -1.64234       -2.14737
H         -5.03147       -0.85639        2.06925
C          2.42820       -0.37673        0.03193
C          3.14217       -0.37463       -1.17371
C          2.97474       -0.82744        1.24125
C          4.45272       -0.85133       -1.14171
C          4.29005       -1.29445        1.21516
C          5.04426       -1.31595        0.03779
H          5.03153       -0.85629       -2.06919
H          4.74295       -1.64228        2.14741
C         -2.52599        0.13844        2.43987
H         -1.51985       -0.27905        2.60164
H         -2.42342        1.23552        2.41151
H         -3.14528       -0.11746        3.30897
C         -2.18643       -0.79756       -2.51821
H         -1.65426        0.15729       -2.65225
H         -1.42166       -1.59179       -2.54063
H         -2.84189       -0.94708       -3.38573
C         -6.44800       -1.84240       -0.03110
H         -6.88784       -1.83751       -1.03766
H         -6.47035       -2.88197        0.33508
H         -7.09523       -1.25142        0.63259
C          2.18639       -0.79754        2.51819
H          1.65422        0.15731        2.65222
H          1.42162       -1.59177        2.54060
H          2.84183       -0.94707        3.38573
C          2.52605        0.13850       -2.43986
H          1.51990       -0.27896       -2.60166
H          2.42351        1.23558       -2.41150
H          3.14535       -0.11742       -3.30896
C          6.44798       -1.84242        0.03120
H          6.88845       -1.83574        1.03747
H          6.47001       -2.88269       -0.33304
H          7.09484       -1.25273       -0.63399
C          0.68955        1.45236        0.01021
C         -0.68956        1.45235       -0.01022
C          1.62733        2.57727       -0.06275
C          1.37313        3.61288       -0.97626
C          2.76908        2.64435        0.74791
C          2.24310        4.69309       -1.07233
H          0.48886        3.56383       -1.61526
C          3.63840        3.72661        0.64367
H          2.97970        1.85431        1.46917
C          3.37866        4.75156       -0.26417
H          2.03659        5.49213       -1.78749
H          4.52375        3.77018        1.28135
H          4.06302        5.59910       -0.34290
C         -1.62735        2.57726        0.06275
C         -1.37315        3.61288        0.97625
C         -2.76911        2.64432       -0.74789
C         -2.24314        4.69308        1.07232
H         -0.48888        3.56385        1.61524
C         -3.63844        3.72657       -0.64366
H         -2.97972        1.85427       -1.46916
C         -3.37870        4.75152        0.26418
H         -2.03663        5.49212        1.78747
H         -4.52380        3.77013       -1.28133
H         -4.06308        5.59906        0.34291
