58
5u_dicl_ad_au.log	Energy: -1291157.6455746
N         -1.10621       -1.01260       -0.00052
N          1.10621       -1.01257       -0.00076
C         -0.68523       -2.33272       -0.00072
C         -0.00001       -0.23546       -0.00046
C          0.68525       -2.33271       -0.00077
Au        -0.00001        1.77392       -0.00056
C         -2.51343       -0.44110       -0.00005
C         -2.70879        0.40292        1.26887
C         -3.59509       -1.53036       -0.00003
C         -2.70945        0.40344       -1.26851
H         -2.58675       -0.24158        2.15500
H         -1.93562        1.18802        1.33978
C         -4.09106        1.05966        1.25382
H         -3.49376       -2.16905        0.88843
H         -3.49424       -2.16851       -0.88894
C         -4.98974       -0.88797        0.00050
H         -1.93632        1.18858       -1.33950
H         -2.58787       -0.24068       -2.15498
C         -4.09171        1.06019       -1.25246
H         -4.19025        1.68366        2.15585
C         -5.16526       -0.02775        1.25059
C         -4.22667        1.92968        0.00090
H         -5.72972       -1.70318        0.00052
C         -5.16592       -0.02721       -1.24912
H         -4.19138        1.68456       -2.15418
H         -6.16856        0.42662        1.26216
H         -5.08397       -0.64620        2.15942
H         -3.45642        2.72218        0.00087
H         -5.20149        2.44200        0.00125
H         -5.08513       -0.64527       -2.15826
H         -6.16922        0.42718       -1.25997
C          2.51343       -0.44106       -0.00027
C          2.70944        0.40404       -1.26836
C          3.59505       -1.53034       -0.00093
C          2.70880        0.40238        1.26902
H          2.58786       -0.23967       -2.15512
H          1.93636        1.18926       -1.33904
C          4.09173        1.06076       -1.25199
H          3.49431       -2.16767       -0.89042
H          3.49357       -2.16981        0.88696
C          4.98972       -0.88798        0.00010
H          1.93562        1.18744        1.34025
H          2.58676       -0.24252        2.15486
C          4.09108        1.05911        1.25429
H          4.19141        1.68553       -2.15344
C          5.16596       -0.02664       -1.24911
C          4.22671        1.92968        0.00175
H          5.72968       -1.70320       -0.00025
C          5.16522       -0.02836        1.25059
H          4.19028        1.68270        2.15660
H          6.16925        0.42778       -1.25970
H          5.08522       -0.64428       -2.15854
H          3.45648        2.72220        0.00209
H          5.20154        2.44198        0.00233
H          5.08385       -0.64723        2.15914
H          6.16855        0.42594        1.26242
Cl        -1.60077       -3.75746        0.00002
Cl         1.60080       -3.75746       -0.00053
