34
5u_dicl_tbu_au.log	Energy: -1000144.6528122
N          0.77581       -1.10586        0.00033
N          0.77575        1.10592        0.00011
C          2.09541       -0.68526        0.00016
C         -0.00322        0.00000        0.00025
C          2.09537        0.68539        0.00002
Au        -2.00621       -0.00005       -0.00019
C          0.21092        2.52285        0.00027
C          0.21110       -2.52284        0.00026
C          1.30507       -3.58646        0.00075
H          1.93690       -3.54837       -0.89473
H          1.93625       -3.54816        0.89667
H          0.79303       -4.55841        0.00069
C         -0.61253       -2.70858       -1.27363
H         -1.48191       -2.03544       -1.32811
H          0.00615       -2.54250       -2.16748
H         -0.99283       -3.73872       -1.30669
C         -0.61344       -2.70840        1.27360
H          0.00456       -2.54208        2.16788
H         -1.48294       -2.03536        1.32731
H         -0.99364       -3.73857        1.30660
C          1.30478        3.58658        0.00055
H          1.93624        3.54825        0.89627
H          1.93633        3.54865       -0.89514
H          0.79263        4.55847        0.00075
C         -0.61303        2.70860       -1.27341
H          0.00550        2.54276       -2.16741
H         -1.48229        2.03531       -1.32783
H         -0.99354        3.73867       -1.30625
C         -0.61329        2.70825        1.27385
H         -1.48258        2.03498        1.32789
H          0.00505        2.54215        2.16794
H         -0.99377        3.73832        1.30691
Cl         3.51703       -1.60268       -0.00027
Cl         3.51695        1.60287       -0.00030
