52
5u_dinme2_ptolu_au.log	Energy: -733263.8047640
N         -1.08120        0.64742       -0.00643
N          1.08170        0.64053        0.00751
C         -0.00167       -0.15029        0.00159
Au        -0.00841       -2.12437        0.00276
C         -2.43493        0.19695       -0.00970
C         -3.26255        0.50948       -1.08706
C         -2.91968       -0.54327        1.06666
C         -4.57970        0.06687       -1.08118
C         -4.23969       -0.98744        1.05188
C         -5.09325       -0.68881       -0.01641
H         -5.22575        0.30654       -1.92949
H         -4.61649       -1.57088        1.89539
C          2.43338        0.18450        0.00795
C          2.91277       -0.55845       -1.06889
C          3.26523        0.49585        1.08241
C          4.23147       -1.00657       -1.05745
C          4.58105        0.04934        1.07325
C          5.08916       -0.70908        0.00783
H          4.60400       -1.59218       -1.90134
H          5.23029        0.28800        1.91941
C         -6.52226       -1.14032       -0.02013
H         -7.19738       -0.29418        0.18713
H         -6.80952       -1.54994       -0.99966
H         -6.70762       -1.90832        0.74265
C          6.51692       -1.16457        0.00763
H          7.19351       -0.32106       -0.20553
H          6.80698       -1.57130        0.98753
H          6.69715       -1.93587       -0.75304
C          0.69432        1.99290        0.01608
C         -0.68589        1.99619       -0.01919
H          2.87826        1.07847        1.91963
H         -2.26912       -0.75984        1.91724
H          2.25903       -0.77410       -1.91726
H         -2.87149        1.09080       -1.92323
N          1.61848        2.99795        0.10860
N         -1.60382        3.00698       -0.11785
C          2.45540        3.30869       -1.03136
H          1.99672        4.06276       -1.69959
H          3.42476        3.69916       -0.68583
H          2.65487        2.40071       -1.61630
C          1.42531        4.05249        1.07746
H          2.40384        4.38607        1.45974
H          0.91077        4.93934        0.66256
H          0.83948        3.67637        1.92725
C         -1.36092        4.08570       -1.04878
H         -2.32329        4.46648       -1.42675
H         -0.81846        4.93897       -0.60044
H         -0.78202        3.71613       -1.90617
C         -2.44792        3.31405        1.01869
H         -1.97624        4.03648        1.71234
H         -3.39900        3.74280        0.66852
H         -2.68431        2.39821        1.57697
