54
5u_dime_mes_au.log	Energy: -713314.1509280
N          1.06678        1.11377        0.05633
N         -1.06679        1.11376        0.05633
C         -0.00000        0.28989       -0.02585
Au         0.00001       -1.79220       -0.04217
C          2.42295        0.67059        0.00905
C          3.06692        0.33739        1.20670
C          3.06211        0.58933       -1.23373
C          4.40114       -0.06608        1.13622
C          4.39655        0.18082       -1.25333
C          5.08257       -0.14913       -0.08121
H          4.92036       -0.33182        2.06139
H          4.91223        0.11056       -2.21527
C         -2.42295        0.67058        0.00904
C         -3.06692        0.33736        1.20669
C         -3.06212        0.58933       -1.23374
C         -4.40114       -0.06612        1.13621
C         -4.39655        0.18081       -1.25334
C         -5.08258       -0.14915       -0.08122
H         -4.92034       -0.33188        2.06138
H         -4.91223        0.11056       -2.21527
C          2.31176        0.88748       -2.49670
H          1.51731        0.13885       -2.65110
H          1.81896        1.87174       -2.46217
H          2.97927        0.86591       -3.36819
C          2.32131        0.36679        2.50630
H          1.80890        1.32801        2.66772
H          1.54355       -0.41546        2.50974
H          2.99539        0.18672        3.35401
C          6.50548       -0.62406       -0.13241
H          7.05447       -0.35520        0.78155
H          6.54499       -1.72202       -0.22702
H          7.04213       -0.20186       -0.99413
C         -2.31177        0.88749       -2.49670
H         -1.81898        1.87176       -2.46217
H         -1.51732        0.13887       -2.65111
H         -2.97928        0.86592       -3.36819
C         -2.32130        0.36675        2.50629
H         -1.54352       -0.41549        2.50970
H         -1.80891        1.32797        2.66773
H         -2.99537        0.18664        3.35400
C         -6.50550       -0.62403       -0.13238
H         -7.04191       -0.20252       -0.99459
H         -6.54507       -1.72207       -0.22606
H         -7.05470       -0.35435        0.78121
C         -0.68260        2.44738        0.18926
C          0.68259        2.44738        0.18926
C         -1.67098        3.54786        0.30031
H         -1.16007        4.51460        0.39698
H         -2.32649        3.59134       -0.58368
H         -2.32492        3.41439        1.17640
C          1.67096        3.54787        0.30032
H          2.32489        3.41442        1.17642
H          2.32649        3.59134       -0.58367
H          1.16004        4.51461        0.39696
