74
5u_diome_dipp_au.log	Energy: -955150.9931569
N         -1.07646        0.08768        0.70220
N          1.08305        0.09065        0.75196
C         -0.70886        0.30219        2.03500
C          3.06803        1.23301       -0.06564
C          0.01652       -0.02645       -0.06039
C          0.66753        0.29297        2.05500
C         -3.03976        1.29213       -0.06543
C         -2.42403        0.06250        0.21397
C          2.44654        0.03364        0.31353
C          4.38737        1.14546       -0.51754
H          4.91276        2.05309       -0.82278
C         -4.35629       -1.16566       -0.46631
H         -4.88238       -2.10834       -0.63014
C         -4.34886        1.24951       -0.55357
H         -4.86699        2.18312       -0.78343
C         -3.05088       -1.18341        0.03106
C          3.07408       -1.22054        0.26613
C         -4.99801        0.03597       -0.75315
H         -6.02046        0.02489       -1.13726
C          5.04138       -0.08104       -0.58013
H          6.07372       -0.12650       -0.93414
C          4.39341       -1.25008       -0.19251
H          4.92415       -2.20316       -0.24448
C          2.36305        2.57139        0.01840
H          1.32767        2.38964        0.34778
C         -2.35191       -2.49776        0.32538
H         -1.43533       -2.27094        0.89503
C         -3.20260       -3.43332        1.18370
H         -2.62755       -4.33235        1.45104
H         -4.10227       -3.77155        0.64807
H         -3.53201       -2.95167        2.11575
C          3.01937        3.46554        1.07070
H          2.46886        4.41320        1.17161
H          4.05750        3.71033        0.79799
H          3.03798        2.96904        2.05211
C         -1.92704       -3.19268       -0.96985
H         -1.37919       -4.12220       -0.75269
H         -2.80205       -3.44960       -1.58653
H         -1.27011       -2.54686       -1.57542
C          2.28194        3.25279       -1.34641
H          3.28027        3.49606       -1.74097
H          1.77885        2.60813       -2.08474
H          1.71566        4.19376       -1.27496
C         -2.33156        2.61647        0.13506
H         -1.31888        2.40652        0.51302
C         -2.16738        3.35988       -1.19030
H         -1.62906        2.74506       -1.92886
H         -3.14031        3.63251       -1.62718
H         -1.59811        4.29003       -1.04196
C         -3.03606        3.46674        1.19155
H         -3.09485        2.93076        2.14993
H         -2.48770        4.40644        1.35674
H         -4.05938        3.72989        0.88242
C          2.37782       -2.48701        0.72044
H          1.31969       -2.24205        0.90591
C          2.96891       -2.97467        2.04435
H          2.42729       -3.86045        2.40999
H          4.02750       -3.25392        1.92776
H          2.91366       -2.19000        2.81352
C          2.40041       -3.57247       -0.35326
H          1.95542       -3.21379       -1.29453
H          3.42462       -3.90914       -0.57436
H          1.83104       -4.45362       -0.02067
Au         0.09222       -0.24640       -2.01674
O          1.58816        0.45540        2.98334
O         -1.58491        0.59870        2.98745
C          1.15738        0.62196        4.32680
H          0.50979        1.50468        4.42577
H          0.61964       -0.27388        4.67548
H          2.06770        0.75572        4.92093
C         -2.38639       -0.45673        3.51433
H         -3.15358       -0.76287        2.78837
H         -1.76043       -1.32132        3.78712
H         -2.87493       -0.05593        4.41006
