64
5u_dicf3_ad_au.log	Energy: -1136989.1600833
N         -1.09622       -0.62158       -0.11671
N          1.09615       -0.62195        0.11730
C         -0.67663       -1.94312       -0.12193
C          0.00007        0.15629        0.00028
C          0.67609       -1.94332        0.12271
Au         0.00053        2.16649        0.00018
C          1.41172       -3.13943        0.71278
C         -1.41244       -3.13877       -0.71275
C         -2.51071       -0.05865       -0.00693
C         -2.60010        0.76520        1.29239
C         -3.57806       -1.15512        0.10840
C         -2.81887        0.79940       -1.23716
H         -2.39788        0.10561        2.15256
H         -1.83380        1.55832        1.31741
C         -3.97735        1.42044        1.41372
H         -3.36727       -1.79750        0.97642
H         -3.59720       -1.77925       -0.78785
C         -4.97101       -0.52301        0.24934
H         -2.05592        1.58996       -1.35794
H         -2.77225        0.16869       -2.13960
C         -4.20224        1.43871       -1.08263
H         -3.98539        2.03938        2.32472
C         -5.04454        0.33260        1.50955
C         -4.22929        2.29822        0.18436
H         -5.70113       -1.34479        0.30884
C         -5.26056        0.33806       -0.98107
H         -4.39781        2.06643       -1.96593
H         -6.04455        0.78335        1.60893
H         -4.88043       -0.28529        2.40740
H         -3.46706        3.09610        0.12141
H         -5.20302        2.80413        0.27648
H         -5.25606       -0.27993       -1.89380
H         -6.26464        0.78394       -0.90337
C          2.51067       -0.05928        0.00719
C          2.59996        0.76354       -1.29284
C          3.57818       -1.15560       -0.10754
C          2.81880        0.79961        1.23684
H          2.39810        0.10307       -2.15242
H          1.83335        1.55632       -1.31879
C          3.97698        1.41911       -1.41463
H          3.36736       -1.79848       -0.97514
H          3.59725       -1.77929        0.78903
C          4.97104       -0.52332       -0.24886
H          2.05562        1.59001        1.35732
H          2.77248        0.16941        2.13966
C          4.20194        1.43920        1.08174
H          3.98488        2.03741       -2.32607
C          5.04443        0.33146       -1.50964
C          4.22865        2.29782       -0.18588
H          5.70131       -1.34501       -0.30781
C          5.26046        0.33867        0.98093
H          4.39744        2.06761        1.96456
H          6.04435        0.78236       -1.60926
H          4.88050       -0.28706       -2.40708
H          3.46615        3.09549       -0.12344
H          5.20220        2.80402       -0.27836
H          5.25609       -0.27864        1.89411
H          6.26447        0.78466        0.90288
F         -0.52671       -4.03474       -1.12791
F         -2.25211       -3.74048        0.11118
F         -2.07784       -2.73758       -1.80065
F          0.52582       -4.03563        1.12703
F          2.07673       -2.73890        1.80120
F          2.25170       -3.74063       -0.11121
