50
5u_dinme2_tbu_au.log	Energy: -591543.0905369
N          0.46174       -1.10107       -0.00900
N          0.46282        1.10021       -0.00912
C          1.80664       -0.68817       -0.00312
C         -0.31459       -0.00004       -0.00930
C          1.80746        0.68595       -0.00306
Au        -2.31737        0.00088        0.00849
C         -0.07695        2.51257       -0.01447
C         -0.07937       -2.51299       -0.01388
C          1.02599       -3.56850       -0.03212
H          1.65364       -3.51399       -0.92878
H          1.66282       -3.53713        0.85890
H          0.51992       -4.54442       -0.04218
C         -0.91596       -2.70945       -1.27921
H         -1.79147       -2.04370       -1.32177
H         -0.30837       -2.53197       -2.17870
H         -1.28566       -3.74351       -1.31333
C         -0.89497       -2.72545        1.26218
H         -0.27171       -2.56333        2.15382
H         -1.76638       -2.05606        1.32825
H         -1.26856       -3.75841        1.28788
C          1.02961        3.56672       -0.03410
H          1.66677        3.53542        0.85668
H          1.65669        3.51066       -0.93109
H          0.52486        4.54330       -0.04480
C         -0.91406        2.70939       -1.27940
H         -0.30730        2.53049       -2.17917
H         -1.79057        2.04489       -1.32102
H         -1.28231        3.74396       -1.31391
C         -0.89158        2.72653        1.26194
H         -1.26448        3.75975        1.28720
H         -1.76337        2.05771        1.32894
H         -0.26790        2.56454        2.15332
N          2.89810       -1.51892        0.00595
N          2.90036        1.51467        0.00671
C          3.62394       -1.78095       -1.21281
H          4.56098       -1.19679       -1.28169
H          3.89417       -2.84986       -1.28203
H          3.00258       -1.53346       -2.08414
C          3.59272       -1.79074        1.24074
H          3.86552       -2.85920        1.30643
H          4.52523       -1.20363        1.34007
H          2.94774       -1.55435        2.09794
C          3.59191        1.79059        1.24226
H          4.52760        1.20873        1.34221
H          3.85879        2.86057        1.30875
H          2.94749        1.55010        2.09871
C          3.62594        1.77942       -1.21154
H          3.89029        2.84975       -1.28242
H          4.56635        1.20052       -1.27810
H          3.00720        1.52666       -2.08320
