58
5u_dif_ad_au.log	Energy: -839050.9951981
N         -1.10172       -1.16697       -0.00003
N          1.10172       -1.16697       -0.00003
C         -0.67883       -2.47822       -0.00004
C          0.00000       -0.38234       -0.00003
C          0.67883       -2.47822       -0.00004
Au         0.00000        1.61568       -0.00004
C         -2.52491       -0.66145        0.00000
C         -2.76279        0.17574        1.26405
C         -3.52905       -1.82467        0.00002
C         -2.76284        0.17575       -1.26403
H         -2.59244       -0.45089        2.15499
H         -2.03995        1.00914        1.31553
C         -4.18716        0.73679        1.25251
H         -3.38049       -2.45668        0.88775
H         -3.38053       -2.45666       -0.88773
C         -4.95959       -1.27083        0.00006
H         -2.04001        1.00916       -1.31553
H         -2.59253       -0.45087       -2.15498
C         -4.18721        0.73680       -1.25242
H         -4.32737        1.35219        2.15492
C         -5.18556       -0.42162        1.25075
C         -4.38459        1.59551        0.00005
H         -5.65109       -2.12744        0.00007
C         -5.18562       -0.42161       -1.25062
H         -4.32747        1.35221       -2.15482
H         -6.21656       -0.03444        1.26543
H         -5.06168       -1.03339        2.15936
H         -3.67395        2.44114        0.00004
H         -5.39418        2.03538        0.00008
H         -5.06178       -1.03337       -2.15924
H         -6.21662       -0.03442       -1.26525
C          2.52491       -0.66145        0.00000
C          2.76284        0.17575       -1.26403
C          3.52905       -1.82467        0.00002
C          2.76279        0.17574        1.26405
H          2.59253       -0.45088       -2.15498
H          2.04001        1.00915       -1.31553
C          4.18722        0.73680       -1.25242
H          3.38054       -2.45666       -0.88773
H          3.38049       -2.45668        0.88775
C          4.95959       -1.27083        0.00006
H          2.03995        1.00914        1.31552
H          2.59244       -0.45089        2.15499
C          4.18716        0.73679        1.25251
H          4.32747        1.35221       -2.15482
C          5.18562       -0.42161       -1.25062
C          4.38459        1.59551        0.00005
H          5.65109       -2.12744        0.00007
C          5.18556       -0.42162        1.25075
H          4.32737        1.35220        2.15492
H          6.21662       -0.03443       -1.26525
H          5.06178       -1.03338       -2.15924
H          3.67395        2.44114        0.00004
H          5.39418        2.03538        0.00008
H          5.06168       -1.03339        2.15936
H          6.21656       -0.03444        1.26543
F         -1.45864       -3.51976       -0.00007
F          1.45864       -3.51976       -0.00007
