66
5u_dih_dIdipp_au.log	Energy: -811681.9325719
N         -1.07972        0.00018        1.16955
C         -0.00002        0.00006        0.37078
N          1.07962        0.00019        1.16963
C         -2.43779        0.00011        0.70105
C         -3.05991       -1.23870        0.47638
C         -4.37332       -1.20820       -0.00000
H         -4.89757       -2.14707       -0.19055
C         -5.02192       -0.00006       -0.23497
C         -4.37334        1.20817       -0.00037
H         -4.89761        2.14697       -0.19121
C         -3.05993        1.23883        0.47600
C         -2.34894        2.55930        0.69825
H         -1.38197        2.34855        1.18241
C         -2.34891       -2.55910        0.69903
H         -1.38193       -2.34818        1.18309
C          2.43773        0.00011        0.70125
C          3.05988        1.23884        0.47624
C          4.37333        1.20818       -0.00002
H          4.89761        2.14698       -0.19082
C          5.02194       -0.00005       -0.23455
C          4.37333       -1.20820        0.00037
H          4.89760       -2.14707       -0.19013
C          3.05987       -1.23870        0.47664
C          2.34886       -2.55909        0.69924
H          1.38184       -2.34818        1.18324
C          2.34888        2.55931        0.69843
H          1.38185        2.34855        1.18247
C         -0.68115        0.00039        2.48988
H         -1.40185        0.00051        3.30293
C          0.68095        0.00039        2.48994
H          1.40158        0.00052        3.30304
C         -3.12992       -3.47768        1.63754
H         -3.33769       -2.98800        2.60042
H         -4.09390       -3.78038        1.20124
H         -2.55825       -4.39624        1.83745
C         -2.04799       -3.24230       -0.63592
H         -2.97452       -3.49416       -1.17441
H         -1.44754       -2.59127       -1.29206
H         -1.48603       -4.17529       -0.47812
C         -2.04799        3.24208       -0.63691
H         -2.97450        3.49376       -1.17550
H         -1.48604        4.17512       -0.47939
H         -1.44751        2.59084       -1.29282
C         -3.12998        3.47819        1.63645
H         -2.55832        4.39681        1.83608
H         -4.09395        3.78075        1.20002
H         -3.33779        2.98881        2.59948
C          2.04803       -3.24229       -0.63573
H          1.48606       -4.17528       -0.47796
H          1.44762       -2.59126       -1.29190
H          2.97459       -3.49415       -1.17415
C          3.12980       -3.47768        1.63781
H          4.09382       -3.78039        1.20156
H          3.33752       -2.98800        2.60071
H          2.55812       -4.39624        1.83768
C          2.04807        3.24209       -0.63676
H          1.44767        2.59086       -1.29274
H          1.48610        4.17514       -0.47929
H          2.97464        3.49378       -1.17525
C          3.12982        3.47818        1.63671
H          3.33752        2.98879        2.59977
H          4.09384        3.78074        1.20039
H          2.55814        4.39681        1.83630
H          6.04925       -0.00012       -0.60553
H         -6.04920       -0.00012       -0.60603
Au         0.00006       -0.00023       -1.60032
