40
5u_dicf3_tbu_au.log	Energy: -845977.0707401
N          0.27588       -1.10139       -0.04007
N          0.27149        1.09994        0.04581
C          1.59491       -0.68343        0.02364
C         -0.50914       -0.00228        0.00308
C          1.59189        0.68777       -0.02142
Au        -2.51301       -0.00235       -0.00517
C          2.80020        1.51370       -0.44363
C          2.81096       -1.50281        0.43591
C         -0.25159        2.52434        0.25089
C         -0.24027       -2.52977       -0.23391
C          0.84699       -3.41505       -0.84637
H          1.29340       -2.95488       -1.73904
H          1.63444       -3.69771       -0.14574
H          0.36847       -4.34944       -1.16574
C         -1.38749       -2.53735       -1.25022
H         -2.34050       -2.15626       -0.84941
H         -1.13233       -1.98183       -2.16429
H         -1.58046       -3.58067       -1.53190
C         -0.69659       -3.05288        1.12246
H          0.13476       -3.07926        1.83893
H         -1.50116       -2.42712        1.53899
H         -1.08533       -4.07472        1.00897
C          0.83810        3.41761        0.84686
H          1.30398        2.95974        1.73066
H          1.61060        3.70879        0.13314
H          0.35645        4.34675        1.17667
C         -0.73291        3.04743       -1.09667
H         -1.54185        2.41940       -1.50136
H         -1.12370        4.06757       -0.97528
H          0.08672        3.07789       -1.82652
C         -1.38094        2.51908        1.28712
H         -2.33541        2.12270        0.90538
H         -1.10151        1.96835        2.19701
H         -1.58303        3.56021        1.57047
F          3.68379       -0.70460        1.03525
F          3.42290       -2.11287       -0.56307
F          2.44319       -2.41308        1.34224
F          3.67496        0.71954       -1.04537
F          2.41980        2.41748       -1.35126
F          3.41405        2.13222        0.54897
