36
5u_dicl_ptolu_au.log	Energy: -1141863.8742144
N         -1.08535        0.92859       -0.03463
N          1.08535        0.92860       -0.03464
C         -0.00000        0.13301       -0.00424
Au         0.00001       -1.83629        0.10294
C         -2.44162        0.46783       -0.02692
C         -2.94502       -0.18835       -1.14751
C         -3.23225        0.67621        1.10084
C         -4.25725       -0.65100       -1.12744
C         -4.54278        0.21347        1.09946
C         -5.07944       -0.45623       -0.00997
H         -4.65437       -1.16697       -2.00481
H         -5.16388        0.37155        1.98438
C          2.44161        0.46784       -0.02693
C          2.94501       -0.18834       -1.14752
C          3.23225        0.67623        1.10083
C          4.25724       -0.65099       -1.12745
C          4.54278        0.21349        1.09945
C          5.07943       -0.45622       -0.00998
H          4.65435       -1.16696       -2.00481
H          5.16388        0.37157        1.98437
C         -6.50344       -0.92106       -0.00815
H         -6.66582       -1.73536       -0.72716
H         -6.81275       -1.26833        0.98773
H         -7.17649       -0.09397       -0.28823
C          6.50343       -0.92105       -0.00814
H          7.17654       -0.09382       -0.28769
H          6.81256       -1.26880        0.98764
H          6.66595       -1.73500       -0.72750
C          0.68446        2.25559       -0.07577
C         -0.68448        2.25558       -0.07577
H          2.82320        1.19093        1.97260
H         -2.82320        1.19090        1.97262
H          2.31759       -0.32546       -2.03106
H         -2.31761       -0.32547       -2.03105
Cl         1.75991        3.54605       -0.14891
Cl        -1.75994        3.54603       -0.14891
