56
5u_diph_ptolu_au.log	Energy: -854894.9539634
N         -1.08181        0.07185       -0.01442
N          1.08180        0.07186        0.01440
C         -0.00000       -0.72617       -0.00001
Au         0.00002       -2.69930        0.00002
C         -2.43089       -0.40246        0.00818
C         -2.91745       -1.14845       -1.06221
C         -3.24517       -0.10507        1.09899
C         -4.23105       -1.61060       -1.02902
C         -4.55528       -0.56689        1.11198
C         -5.07301       -1.32713        0.05264
H         -4.61263       -2.19548       -1.86934
H         -5.19274       -0.33439        1.96860
C          2.43088       -0.40244       -0.00818
C          3.24519       -0.10500       -1.09898
C          2.91745       -1.14839        1.06222
C          4.55531       -0.56675       -1.11193
C          4.23108       -1.61047        1.02906
C          5.07304       -1.32700       -0.05258
H          5.19280       -0.33417       -1.96851
H          4.61270       -2.19527        1.86942
C         -6.49465       -1.80053        0.07791
H         -6.69674       -2.52371       -0.72332
H         -6.73963       -2.27459        1.04000
H         -7.18856       -0.95430       -0.05076
C          6.49459       -1.80065       -0.07811
H          6.69796       -2.52025        0.72600
H          6.73772       -2.27921       -1.03848
H          7.18889       -0.95400        0.04531
C          0.68825        1.40829        0.00673
C         -0.68828        1.40827       -0.00675
H          2.27702       -1.35127        1.92372
H         -2.85330        0.48726        1.92787
H          2.85332        0.48735       -1.92785
H         -2.27701       -1.35135       -1.92371
C          1.62563        2.53615       -0.01384
C          1.42847        3.57689       -0.93262
C          2.70559        2.59874        0.87826
C          2.29860        4.66209       -0.95643
H          0.58974        3.53020       -1.63047
C          3.57360        3.68572        0.84723
H          2.86368        1.79907        1.60444
C          3.37261        4.71781       -0.06867
H          2.13939        5.46768       -1.67630
H          4.41037        3.72953        1.54752
H          4.05567        5.56982       -0.09010
C         -1.62567        2.53613        0.01384
C         -1.42851        3.57686        0.93264
C         -2.70561        2.59874       -0.87827
C         -2.29863        4.66207        0.95646
H         -0.58977        3.53016        1.63049
C         -3.57362        3.68572       -0.84723
H         -2.86370        1.79908       -1.60446
C         -3.37263        4.71779        0.06869
H         -2.13942        5.46764        1.67633
H         -4.41038        3.72954       -1.54753
H         -4.05569        5.56980        0.09012
