64
5u_ph_ad_au.log	Energy: -810971.5974378
C         -0.70681       -2.39058       -0.00054
C          0.70618       -2.39071       -0.00017
C          1.41531       -3.60244       -0.00002
C          0.69924       -4.78651       -0.00001
C         -0.70029       -4.78639       -0.00013
C         -1.41616       -3.60220       -0.00039
C         -0.00013       -0.28265       -0.00046
H          2.49644       -3.64478        0.00013
H          1.24261       -5.73318        0.00014
H         -1.24382       -5.73296        0.00001
H         -2.49732       -3.64435       -0.00042
N         -1.10877       -1.04745       -0.00082
N          1.10834       -1.04769       -0.00023
Au         0.00057        1.72741       -0.00028
C          2.50029       -0.46469       -0.00002
C          2.70301        0.38001        1.26881
C          3.58771       -1.54765       -0.00023
C          2.70336        0.38043       -1.26853
H          2.58093       -0.26490        2.15476
H          1.92900        1.16407        1.34218
C          4.08433        1.03767        1.25367
H          3.48717       -2.17943       -0.89470
H          3.48687       -2.18029        0.89359
C          4.98383       -0.90947        0.00022
H          1.92953        1.16467       -1.34181
H          2.58140       -0.26413       -2.15475
C          4.08471        1.03804       -1.25284
H          4.18488        1.66196        2.15539
C          5.15943       -0.04887        1.25025
C          4.21992        1.90751        0.00056
H          5.72432       -1.72443        0.00024
C          5.15986       -0.04845       -1.24946
H          4.18549        1.66261       -2.15434
H          5.07888       -0.66700        2.15949
H          6.16292        0.40519        1.26076
H          3.44918        2.69936        0.00056
H          5.19455        2.42038        0.00079
H          6.16332        0.40566       -1.25948
H          5.07964       -0.66629       -2.15893
C         -2.50062       -0.46427       -0.00034
C         -2.70376        0.38136       -1.26847
C         -3.58806       -1.54718       -0.00071
C         -2.70315        0.38006        1.26875
H         -2.58185       -0.26281       -2.15497
H         -1.92995        1.16566       -1.34143
C         -4.08511        1.03899       -1.25246
H         -3.48725       -2.17976        0.89316
H         -3.48747       -2.17901       -0.89513
C         -4.98418       -0.90900       -0.00012
H         -1.92926        1.16424        1.34206
H         -2.58084       -0.26502        2.15454
C         -4.08454        1.03763        1.25403
H         -4.18591        1.66391       -2.15371
C         -5.16024       -0.04751       -1.24946
C         -4.22028        1.90796        0.00129
H         -5.72468       -1.72395       -0.00042
C         -5.15968       -0.04889        1.25027
H         -4.18501        1.66156        2.15601
H         -5.08003       -0.66500       -2.15917
H         -6.16371        0.40659       -1.25929
H         -3.44959        2.69985        0.00154
H         -5.19495        2.42076        0.00178
H         -6.16314        0.40522        1.26103
H         -5.07910       -0.66740        2.15925
