42
5u_ph_ptolu_au.log	Energy: -661678.8305445
C          0.70112        2.28234       -0.09132
C         -0.69998        2.28285       -0.09129
C         -1.43491        3.46618       -0.15534
C         -0.70255        4.64498       -0.21016
C          0.70573        4.64443       -0.21004
C          1.43708        3.46500       -0.15520
C         -0.00026        0.16315       -0.01704
H         -2.52558        3.46021       -0.16487
H         -1.23230        5.59825       -0.25986
H          1.23624        5.59728       -0.25962
H          2.52775        3.45796       -0.16451
N          1.09362        0.94598       -0.04951
N         -1.09364        0.94674       -0.04945
C          2.44436        0.48170       -0.03576
C          3.26012        0.77791        1.05603
C          2.93363       -0.25555       -1.11142
C          4.57328        0.32343        1.06412
C          4.24913       -0.71171       -1.08168
C          5.09172       -0.43052        0.00025
H          5.21094        0.55243        1.92164
H          4.63284       -1.28904       -1.92614
C         -2.44472        0.48362       -0.03573
C         -2.93459       -0.25348       -1.11170
C         -3.26163        0.78431        1.05354
C         -4.25119       -0.70542       -1.08377
C         -4.57660        0.33390        1.05974
C         -5.09459       -0.42176       -0.00257
H         -4.63617       -1.27947       -1.92996
H         -5.21623        0.56949        1.91393
C          6.51260       -0.90556        0.02574
H          6.72434       -1.47197        0.94535
H          6.74136       -1.54962       -0.83350
H          7.20985       -0.05317        0.00445
C         -6.50857       -0.91647        0.03044
H         -6.60631       -1.76836        0.72263
H         -7.19701       -0.13381        0.38116
H         -6.84423       -1.25137       -0.96018
Au        -0.00021       -1.80619        0.10227
H         -2.86531        1.36097        1.89220
H         -2.29408       -0.45478       -1.97337
H          2.29306       -0.45673       -1.97307
H          2.86283        1.35196        1.89604
