72
5u_ph_dipp_au.log	Energy: -907929.5668671
C          0.70072       -0.00162        2.12473
C         -0.70066       -0.00162        2.12475
C         -1.43753       -0.00257        3.30771
C         -0.70436       -0.00352        4.48820
C          0.70449       -0.00352        4.48817
C          1.43762       -0.00257        3.30767
C          0.00000        0.00009        0.00826
H         -2.52852       -0.00257        3.29716
H         -1.23324       -0.00430        5.44326
H          1.23340       -0.00429        5.44323
H          2.52862       -0.00255        3.29709
N          1.09175       -0.00055        0.79031
N         -1.09172       -0.00055        0.79034
C          2.44490       -0.00030        0.31905
C          3.07118       -1.23857        0.10212
C          3.07136        1.23820        0.10386
C          4.38520       -1.20853       -0.37250
C          4.38537        1.20864       -0.37080
C          5.03322        0.00018       -0.60766
H          4.91087       -2.14726       -0.56014
H          4.91117        2.14756       -0.55711
C         -2.44488       -0.00029        0.31911
C         -3.07129        1.23820        0.10380
C         -3.07119       -1.23857        0.10226
C         -4.38531        1.20864       -0.37087
C         -4.38521       -1.20853       -0.37235
C         -5.03319        0.00018       -0.60761
H         -4.91106        2.14757       -0.55728
H         -4.91090       -2.14726       -0.55992
C          2.36120       -2.55658        0.33929
H          1.39518       -2.33922        0.82196
C          2.36156        2.55596        0.34291
H          1.39538        2.33804        0.82502
C         -2.36122       -2.55657        0.33950
H         -1.39513       -2.33917        0.82201
C         -2.36151        2.55599        0.34270
H         -1.39517        2.33811        0.82450
Au        -0.00003        0.00176       -1.96218
C          3.14241        3.45872        1.29651
H          3.34079        2.95422        2.25376
H          4.11002        3.76309        0.86932
H          2.57323        4.37649        1.50691
C          2.06092        3.25806       -0.98198
H          2.98724        3.51635       -1.51788
H          1.45939        2.61671       -1.64670
H          1.49989        4.18933       -0.81109
C          2.06012       -3.25659       -0.98662
H          2.98626       -3.51411       -1.52319
H          1.49907       -4.18809       -0.81701
H          1.45843       -2.61417       -1.65016
C          3.14209       -3.46098        1.29130
H          4.10951       -3.76493        0.86341
H          3.34083       -2.95798        2.24928
H          2.57275       -4.37893        1.50045
C         -3.14200       -3.46082        1.29175
H         -2.57272       -4.37882        1.50084
H         -3.34048       -2.95773        2.24972
H         -4.10955       -3.76470        0.86409
C         -2.06026       -3.25669       -0.98638
H         -2.98644       -3.51424       -1.52288
H         -1.45860       -2.61435       -1.65000
H         -1.49923       -4.18820       -0.81673
C         -3.14213        3.45863        1.29661
H         -3.34002        2.95409        2.25394
H         -2.57303        4.37651        1.50678
H         -4.10997        3.76282        0.86982
C         -2.06127        3.25813       -0.98227
H         -1.45973        2.61689       -1.64707
H         -2.98773        3.51623       -1.51802
H         -1.50041        4.18953       -0.81150
H          6.06081        0.00037       -0.97797
H         -6.06078        0.00036       -0.97793
