84
6s_cyhexane_dIdipp_au.log	Energy: -959442.2189950
C         -0.07125       -0.02944        0.10754
C          1.61522        1.06794        1.49531
H          2.64810        1.34689        1.25069
H          1.64270        0.56890        2.47973
C         -0.73799        1.78195        1.59761
H         -0.95776        1.35262        2.59062
H         -1.44466        2.60836        1.43760
C          2.17602       -0.87603        0.06538
C          2.30600       -2.06965        0.79966
C          3.27882       -2.98189        0.37997
H          3.40780       -3.91822        0.92741
C          4.08551       -2.71612       -0.72040
C          3.93969       -1.52534       -1.42401
H          4.57976       -1.32794       -2.28646
C          2.98835       -0.57545       -1.04375
C          1.44811       -2.38864        2.00833
H          0.69909       -1.58811        2.11646
C          2.82736        0.70506       -1.83590
H          2.18418        1.37450       -1.24806
C         -2.39626        0.57701        0.20066
C         -2.89227        1.24828       -0.93253
C         -4.24339        1.07555       -1.24515
H         -4.65959        1.58095       -2.11960
C         -5.06525        0.27411       -0.46067
C         -4.54724       -0.38317        0.64959
H         -5.20156       -1.01561        1.25369
C         -3.20197       -0.25022        1.00499
C         -2.01825        2.11925       -1.81023
H         -1.00272        2.09535       -1.39234
C         -2.66482       -0.99310        2.21241
H         -1.57692       -0.82545        2.25747
N          1.19250        0.08745        0.49004
N         -1.01926        0.76726        0.57788
C          0.69864        2.28949        1.54272
C          0.90585        3.20494        0.32243
C          0.96957        3.08893        2.82775
C          2.25411        3.91680        0.31797
H          0.10221        3.96111        0.33110
H          0.77198        2.63536       -0.61085
C          2.32397        3.78898        2.82857
H          0.17404        3.84861        2.92613
H          0.87261        2.42488        3.70340
C          2.48291        4.69025        1.61029
H          2.30455        4.59106       -0.55108
H          3.07048        3.18758        0.17372
H          2.43085        4.37181        3.75612
H          3.13760        3.04245        2.84934
H          3.47847        5.15961        1.60606
H          1.75164        5.51562        1.67309
C         -1.93180        1.56819       -3.23299
H         -1.23862        2.16901       -3.84112
H         -1.56970        0.52703       -3.23529
H         -2.91140        1.57942       -3.73480
C         -2.48115        3.57591       -1.79597
H         -3.48567        3.68447       -2.23305
H         -2.52191        3.97665       -0.77173
H         -1.79477        4.20585       -2.38203
C         -3.27147       -0.45702        3.50996
H         -4.35895       -0.62550        3.53907
H         -2.83319       -0.96415        4.38292
H         -3.10456        0.62506        3.62129
C         -2.87617       -2.50055        2.07814
H         -2.42227       -2.88753        1.15296
H         -2.42290       -3.03162        2.92845
H         -3.94531       -2.76038        2.06016
C          0.67953       -3.69565        1.82089
H          0.05895       -3.66744        0.91142
H          1.35855       -4.55724        1.73475
H          0.01658       -3.88204        2.67866
C          2.28497       -2.41072        3.28854
H          3.03650       -3.21451        3.25902
H          2.82394       -1.46292        3.43802
H          1.64588       -2.58515        4.16746
C          4.15522        1.42738       -2.05401
H          4.68403        1.59758       -1.10413
H          4.82866        0.85823       -2.71265
H          3.98462        2.40481       -2.52966
C          2.11012        0.44003       -3.16048
H          1.12477       -0.02603       -2.99482
H          1.95166        1.37769       -3.71503
H          2.69575       -0.23725       -3.80133
H          4.83858       -3.44349       -1.03145
H         -6.12010        0.15788       -0.71895
Au        -0.56619       -1.45208       -1.20739
