78
6s_cy4_dipp_au.log	Energy: -910169.4122870
C         -0.01043        0.02994        0.28050
C          1.27724        0.84492        2.18822
H          2.18477        1.46450        2.20717
H          1.42979        0.02185        2.90835
C         -1.18375        0.82782        2.26587
H         -1.27461       -0.00882        2.98159
H         -2.09500        1.43517        2.35528
C          2.38551       -0.09728        0.17809
C          2.93119       -1.36451        0.45107
C          4.14204       -1.69081       -0.16642
H          4.59541       -2.66652        0.02257
C          4.77655       -0.79426       -1.01913
C          4.20551        0.44623       -1.28322
H          4.70917        1.13667       -1.96358
C          2.99672        0.82402       -0.69256
C          2.24334       -2.37234        1.35092
H          1.30671       -1.92016        1.71384
C          2.38506        2.17411       -1.00567
H          1.40363        2.21558       -0.51067
C         -2.40972       -0.00212        0.26831
C         -3.01558        0.99839       -0.51355
C         -4.24903        0.69907       -1.09786
H         -4.74744        1.45012       -1.71507
C         -4.85148       -0.53988       -0.90485
C         -4.22756       -1.51051       -0.12857
H         -4.71036       -2.48049        0.01039
C         -2.99113       -1.26539        0.47603
C         -2.36442        2.34631       -0.74809
H         -1.43080        2.37093       -0.16750
C         -2.32081       -2.34510        1.30225
H         -1.34602       -1.95748        1.63856
N          1.16449        0.27724        0.84104
N         -1.15139        0.28864        0.90191
Au        -0.06240       -0.76056       -1.55591
C          0.04884        1.65471        2.55880
C          0.08623        3.11015        2.01942
C          0.16455        2.23370        3.98745
C          0.63062        3.57132        3.38332
H         -0.92815        3.49167        1.83245
H          0.69843        3.30613        1.12746
H         -0.82334        2.31429        4.46578
H          0.84064        1.71100        4.68140
H          0.20299        4.48921        3.80795
H          1.72564        3.67404        3.38662
C          2.13243        2.34507       -2.50280
H          1.61708        3.29688       -2.70171
H          3.06996        2.34861       -3.07916
H          1.50318        1.53040       -2.89627
C          3.23382        3.31493       -0.44343
H          2.74966        4.28653       -0.62571
H          3.38876        3.20957        0.64128
H          4.22772        3.34442       -0.91577
C          3.09557       -2.70942        2.57436
H          3.35690       -1.80685        3.14731
H          2.55782       -3.39765        3.24388
H          4.03756       -3.19937        2.28411
C          1.85480       -3.62838        0.57092
H          1.21690       -3.38021       -0.29185
H          2.74121       -4.15769        0.18963
H          1.30008       -4.32856        1.21366
C         -3.13816       -2.68116        2.54991
H         -4.11932       -3.10308        2.28330
H         -2.61421       -3.42552        3.16843
H         -3.32030       -1.78849        3.16724
C         -2.03833       -3.59041        0.46237
H         -1.49167       -4.34105        1.05268
H         -2.96843       -4.05978        0.10765
H         -1.42983       -3.34516       -0.42254
C         -1.98066        2.52682       -2.21672
H         -2.86575        2.51657       -2.87109
H         -1.46225        3.48581       -2.36881
H         -1.30752        1.72131       -2.55332
C         -3.24096        3.49410       -0.24854
H         -3.50510        3.36904        0.81271
H         -2.71807        4.45613       -0.36012
H         -4.18170        3.56271       -0.81590
H          5.72448       -1.06749       -1.48785
H         -5.81831       -0.75209       -1.36657
