57
6s_cy3_mes_au.log	Energy: -737802.3855288
C         -0.00075        0.50391        0.21686
C          1.23452        2.51503        0.84300
H          2.14004        2.95212        0.40096
H          1.35322        2.54567        1.93994
C         -1.24303        2.51607        0.83107
H         -1.37764        2.55478        1.92603
H         -2.14284        2.94972        0.37440
C          2.39611        0.39461        0.24029
C          2.94678       -0.27791        1.34250
C          4.15038       -0.95870        1.15107
H          4.59060       -1.49406        1.99666
C          4.80512       -0.97503       -0.08446
C          4.21968       -0.29114       -1.15458
H          4.71401       -0.29969       -2.12977
C          3.01764        0.40517       -1.01841
C          2.26774       -0.27562        2.68075
H          2.28697        0.72308        3.14578
H          2.76676       -0.96592        3.37276
H          1.21198       -0.57962        2.60569
C          6.11573       -1.68361       -0.25007
H          6.25512       -2.04208       -1.27943
H          6.20118       -2.54148        0.43133
H          6.95258       -1.00211       -0.02462
C          2.40936        1.13145       -2.18132
H          1.36531        0.82689       -2.35505
H          2.97569        0.93997       -3.10159
H          2.40131        2.22124       -2.02024
C         -2.39786        0.38952        0.24480
C         -3.04497        0.42910       -1.00004
C         -4.24726       -0.26881       -1.12855
H         -4.76119       -0.25592       -2.09351
C         -4.80881       -0.98025       -0.06393
C         -4.12849       -0.99261        1.15806
H         -4.55029       -1.54897        1.99947
C         -2.92282       -0.31375        1.34053
C         -2.46667        1.18877       -2.15690
H         -2.53743        2.27773       -2.00206
H         -3.00512        0.95729       -3.08479
H         -1.40216        0.95536       -2.31233
C         -6.12119       -1.68790       -0.21904
H         -6.95344       -1.01994        0.05806
H         -6.18338       -2.57240        0.43014
H         -6.28961       -2.00617       -1.25718
C         -2.20321       -0.36025        2.65669
H         -1.22567       -0.86152        2.56423
H         -2.78855       -0.91253        3.40269
H         -2.01418        0.64560        3.06205
N          1.16169        1.11259        0.40936
N         -1.16441        1.11039        0.40895
Au         0.00211       -1.40303       -0.38347
C         -0.00197        3.24872        0.40986
C          0.00415        3.98971       -0.90001
C         -0.00288        4.74511        0.39384
H         -0.90928        3.98176       -1.49970
H          0.92408        3.98479       -1.48981
H          0.91212        5.25830        0.70129
H         -0.92146        5.25706        0.69264
