76
6s_cyhexane_dIad_au.log	Energy: -862483.7734679
C         -0.11744        0.16057        0.23760
C          1.22021        1.94891        1.04179
H          2.26763        2.24460        1.04487
H          0.86214        1.99912        2.08543
C         -1.03938        2.42465        0.37148
H         -1.42202        2.81008        1.32729
H         -1.67230        2.83425       -0.42917
N          1.10777        0.57713        0.55029
N         -1.18185        0.95926        0.35148
C          0.38866        2.88318        0.17189
C          0.79447        2.81293       -1.31066
C          0.52570        4.32991        0.67085
C          2.17371        3.40033       -1.58373
H          0.04634        3.38753       -1.88386
H          0.73226        1.77842       -1.68512
C          1.89697        4.93708        0.39079
H         -0.24793        4.93799        0.16959
H          0.29888        4.37155        1.74981
C          2.27048        4.83626       -1.08325
H          2.38569        3.35265       -2.66312
H          2.95333        2.78490       -1.09962
H          1.90244        5.98795        0.71817
H          2.66618        4.43311        1.00259
H          3.28190        5.23718       -1.25076
H          1.58555        5.46898       -1.67516
C         -2.60527        0.44626        0.31549
C         -2.77414       -0.77433        1.23678
C         -3.57739        1.51906        0.85398
C         -3.02298        0.11892       -1.12368
H         -2.50230       -0.48560        2.26597
H         -2.08766       -1.58936        0.95240
C         -4.20807       -1.30493        1.17543
H         -3.52872        2.43555        0.25063
H         -3.30649        1.78486        1.88844
C         -5.02345        1.00696        0.81394
H         -2.33688       -0.63452       -1.55678
H         -2.92771        1.02355       -1.74800
C         -4.45730       -0.41403       -1.15421
H         -4.27449       -2.20443        1.80763
C         -5.16607       -0.23348        1.69181
C         -4.55509       -1.66221       -0.27283
H         -5.67547        1.81034        1.19105
C         -5.40460        0.66593       -0.62726
H         -4.72057       -0.66793       -2.19315
H         -4.93664        0.00833        2.74258
H         -6.20427       -0.60114        1.66711
H         -3.87237       -2.44666       -0.64621
H         -5.57198       -2.08230       -0.32456
H         -6.44671        0.31128       -0.66912
H         -5.34828        1.56446       -1.26387
C          2.34253       -0.29507        0.46769
C          2.65936       -0.66920       -0.98836
C          3.57878        0.44528        1.01432
C          2.16044       -1.54790        1.34191
H          2.82890        0.25154       -1.57097
H          1.79480       -1.17845       -1.45391
C          3.88197       -1.58714       -1.05163
H          3.40724        0.76156        2.05549
H          3.78429        1.34565        0.41449
C          4.82203       -0.45339        0.95247
H          1.26670       -2.11769        1.03318
H          1.98338       -1.23287        2.38375
C          3.38678       -2.45699        1.24654
H          4.05945       -1.86608       -2.10227
C          5.09825       -0.84271       -0.49933
C          3.62083       -2.84379       -0.21655
H          5.67157        0.12142        1.35320
C          4.60442       -1.71148        1.79055
H          3.20167       -3.36173        1.84684
H          5.30392        0.05389       -1.10725
H          5.99497       -1.47986       -0.55711
H          2.74407       -3.38829       -0.61132
H          4.47688       -3.53264       -0.29304
H          5.49885       -2.35324        1.74975
H          4.44751       -1.44835        2.84953
Au        -0.36318       -1.67116       -0.62431
