49
6s_cypentane_dIterbutyl_au.log	Energy: -546840.9051996
C         -0.11828        0.10766        0.35462
C          2.14149       -0.30432        0.98667
H          2.86240       -1.11670        0.89298
H          2.15725        0.03117        2.03850
C          1.51235        1.93336        0.34549
H          1.76023        2.43848        1.29021
H          1.54933        2.68653       -0.45551
N          0.80948       -0.80349        0.64295
N          0.13464        1.41813        0.41413
C          2.51614        0.84585        0.06644
C          2.59372        0.39963       -1.40147
C          3.95781        1.29731        0.33334
C          3.92917       -0.34155       -1.50543
H          2.60890        1.30339       -2.03259
H          1.73251       -0.20213       -1.73014
C          4.84395        0.30685       -0.44123
H          4.19051        1.34425        1.40881
H          4.08311        2.31845       -0.06202
H          3.79210       -1.41568       -1.30010
H          4.34914       -0.28232       -2.51915
H          5.26897       -0.45405        0.23029
H          5.70289        0.82068       -0.89443
C          0.55487       -2.30180        0.66532
C         -0.94790        2.48091        0.40014
C         -2.10638        2.09784        1.32484
H         -1.73698        1.83184        2.32619
H         -2.78107        2.95880        1.42609
H         -2.71786        1.26111        0.95446
C         -0.38355        3.79090        0.96728
H          0.40330        4.23682        0.34699
H         -1.20484        4.51840        1.00700
H         -0.00660        3.66554        1.99230
C         -1.40598        2.72052       -1.03622
H         -1.84880        1.81329       -1.48073
H         -2.16805        3.51212       -1.06621
H         -0.56550        3.03318       -1.67393
C         -0.61791       -2.61441        1.59828
H         -0.75661       -3.70255        1.65824
H         -0.41875       -2.23555        2.61149
H         -1.57429       -2.18685        1.26040
C          0.33337       -2.82179       -0.75428
H         -0.56007       -2.38466       -1.22976
H          1.19994       -2.59687       -1.39352
H          0.19598       -3.91222       -0.73500
C          1.76878       -3.03925        1.23991
H          2.04536       -2.68325        2.24218
H          1.49534       -4.09851        1.33556
H          2.64850       -3.00131        0.58222
Au        -1.89551       -0.49557       -0.42142
