67
6s_cy3_ad_au.log	Energy: -788582.8461042
C         -0.02222        0.51968        0.15559
C          1.05853        2.50807        0.85902
H          2.05482        2.94685        0.89425
H          0.63131        2.55531        1.87648
C         -1.20063        2.66227       -0.01238
H         -1.71787        3.12070        0.84214
H         -1.78475        2.88339       -0.91826
N          1.14025        1.10575        0.43595
N         -1.17501        1.19929        0.17694
Au        -0.04788       -1.43772       -0.41549
C          0.17948        3.21973       -0.12147
C          0.75485        3.61415       -1.45138
C          0.37585        4.66487       -0.44978
H          0.12775        3.49391       -2.33879
H          1.81834        3.42707       -1.62668
H          1.17542        5.20200        0.06724
H         -0.51330        5.27097       -0.64384
C         -2.53039        0.52641        0.20474
C         -2.58277       -0.55328        1.29911
C         -3.63198        1.54794        0.56185
C         -2.87095       -0.05775       -1.17283
H         -2.37331       -0.08356        2.27481
H         -1.79885       -1.31416        1.14624
C         -3.94518       -1.24977        1.30610
H         -3.66902        2.36201       -0.17541
H         -3.42449        1.99589        1.54703
C         -5.00906        0.87099        0.58712
H         -2.09382       -0.78138       -1.48532
H         -2.86577        0.74982       -1.92451
C         -4.23325       -0.75431       -1.13436
H         -3.92683       -2.04528        2.06763
C         -5.03184       -0.23057        1.64360
C         -4.21068       -1.85851       -0.07388
H         -5.75765        1.64067        0.83190
C         -5.31166        0.27403       -0.78762
H         -4.43711       -1.19092       -2.12480
H         -4.85907        0.19250        2.64680
H         -6.02052       -0.71588        1.66690
H         -3.43313       -2.60476       -0.31755
H         -5.17108       -2.39775       -0.07013
H         -6.30492       -0.20230       -0.78287
H         -5.34218        1.06617       -1.55403
C          2.48513        0.42059        0.33524
C          2.75711       -0.04033       -1.10600
C          3.62494        1.38584        0.71215
C          2.55573       -0.75535        1.32358
H          2.73894        0.83674       -1.77440
H          1.95396       -0.71390       -1.45561
C          4.09966       -0.76887       -1.19174
H          3.48514        1.76437        1.73733
H          3.63685        2.24980        0.02800
C          4.98581        0.68095        0.62209
H          1.74028       -1.47653        1.13484
H          2.40236       -0.37313        2.34641
C          3.89987       -1.47636        1.20508
H          4.24465       -1.11926       -2.22581
C          5.22102        0.19663       -0.80784
C          4.09221       -1.96364       -0.23381
H          5.76130        1.41085        0.90224
C          5.02106       -0.50780        1.58094
H          3.90062       -2.33593        1.89376
H          5.24472        1.04967       -1.50601
H          6.19958       -0.30358       -0.88225
H          3.28587       -2.66733       -0.50868
H          5.03739       -2.52252       -0.31996
H          5.99906       -1.01141        1.52326
H          4.89747       -0.16835        2.62250
