46
6s_cy4_tbu_au.log	Energy: -522198.3441567
C          0.06604        0.04283        0.41106
C          2.30612       -0.83265        0.67709
H          2.77598       -1.68631        0.17340
H          2.65212       -0.83269        1.72349
C          1.93881        1.56453        0.62987
H          2.26539        1.71634        1.67174
H          2.12910        2.49600        0.08287
N          0.85182       -1.01570        0.61021
N          0.49654        1.29460        0.56928
Au        -1.71435       -0.24772       -0.51846
C          2.70222        0.44406       -0.01696
C          2.62784        0.33468       -1.56144
C          4.23344        0.60533       -0.13551
C          4.15046        0.09879       -1.58867
H          2.34171        1.29219       -2.02256
H          1.97694       -0.45161       -1.97502
H          4.53410        1.66200       -0.07466
H          4.84704        0.03392        0.57749
H          4.72574        0.65315       -2.34191
H          4.41256       -0.96527       -1.68055
C          0.35299       -2.44362        0.69533
C         -0.41065        2.50754        0.60950
C          1.35850       -3.27331        1.50681
H          2.32341       -3.41292        1.00466
H          1.53250       -2.84151        2.50266
H          0.93268       -4.27486        1.65115
C          0.23119       -3.02091       -0.71147
H         -0.09628       -4.06954       -0.66878
H         -0.50526       -2.46059       -1.31129
H          1.19562       -2.98906       -1.24081
C         -0.96721       -2.52778        1.46559
H         -0.89833       -1.99927        2.42772
H         -1.83416       -2.12869        0.91740
H         -1.18952       -3.58389        1.66948
C          0.29480        3.62986        1.38440
H          1.17468        4.03579        0.87099
H         -0.41388        4.46076        1.49686
H          0.58691        3.30584        2.39341
C         -0.69652        2.97089       -0.81553
H         -1.23030        2.19485       -1.38903
H         -1.32230        3.87477       -0.80686
H          0.23467        3.20830       -1.35193
C         -1.69674        2.21587        1.38673
H         -2.40034        1.55350        0.85992
H         -1.47402        1.76800        2.36631
H         -2.22903        3.16177        1.55505
