70
6s_cy4_ad_au.log	Energy: -813210.7920550
C         -0.04214        0.39719        0.16202
C          1.09516        2.33392        0.91814
H          2.10428        2.74435        0.94578
H          0.69317        2.35984        1.94684
C         -1.17073        2.56743        0.12679
H         -1.64331        2.99230        1.02383
H         -1.78573        2.85151       -0.74026
N          1.13681        0.95130        0.44152
N         -1.17816        1.09817        0.23073
Au        -0.11700       -1.53218       -0.49308
C          0.21284        3.13700       -0.01134
C          0.83694        3.30565       -1.41827
C          0.35242        4.66193        0.18726
C          1.33743        4.69953       -0.99651
H          0.06232        3.35914       -2.19791
H          1.58235        2.55708       -1.72788
H         -0.58974        5.18313       -0.04112
H          0.70364        5.00327        1.17335
H          1.21812        5.51636       -1.72060
H          2.38778        4.68854       -0.66935
C          2.45875        0.21725        0.36089
C          2.74721       -0.25353       -1.07369
C          3.62552        1.13906        0.76358
C          2.46220       -0.96230        1.34766
H          2.78380        0.62197       -1.74306
H          1.92744       -0.89438       -1.44661
C          4.06179       -1.03450       -1.12933
H          3.47932        1.51916        1.78699
H          3.68152        2.00447        0.08316
C          4.96044        0.38295        0.70276
H          1.62534       -1.65147        1.13622
H          2.29767       -0.57587        2.36728
C          3.78114       -1.73233        1.26149
H          4.21570       -1.39042       -2.16021
C          5.21003       -0.11167       -0.72094
C          3.98784       -2.22765       -0.17250
H          5.75662        1.08296        1.00061
C          4.92854       -0.80555        1.66254
H          3.73423       -2.59060        1.95019
H          5.28171        0.73882       -1.41889
H          6.17028       -0.64888       -0.77279
H          3.16201       -2.90069       -0.46568
H          4.91315       -2.82152       -0.23778
H          5.88814       -1.34537        1.62793
H          4.79360       -0.46037        2.70083
C         -2.54773        0.45322        0.24214
C         -2.61128       -0.67720        1.28362
C         -3.62275        1.47879        0.66320
C         -2.91675       -0.05534       -1.15771
H         -2.38073       -0.26003        2.27827
H         -1.84614       -1.44674        1.08517
C         -3.98798       -1.34475        1.27360
H         -3.65080        2.32889       -0.03225
H         -3.39335        1.87324        1.66616
C         -5.01377        0.83054        0.67305
H         -2.15914       -0.77913       -1.51477
H         -2.90233        0.78795       -1.86894
C         -4.29338       -0.72394       -1.13597
H         -3.97783       -2.17707        1.99491
C         -5.04855       -0.32112        1.67434
C         -4.28213       -1.87921       -0.13116
H         -5.74265        1.60287        0.96452
C         -5.34518        0.30842       -0.72535
H         -4.51840       -1.10688       -2.14388
H         -4.85523        0.04810        2.69490
H         -6.04710       -0.78623        1.68598
H         -3.52337       -2.62849       -0.42069
H         -5.25360       -2.39815       -0.14175
H         -6.34833       -0.14673       -0.73133
H         -5.36752        1.13780       -1.45158
