45
6s_cy3_ptolu_au.log	Energy: -639291.9529480
C         -0.00002        0.57371        0.21451
C          1.23633        2.63451        0.67796
H          2.14104        3.03098        0.19788
H          1.35839        2.75535        1.76863
C         -1.23636        2.63461        0.67759
H         -1.35879        2.75553        1.76821
H         -2.14089        3.03111        0.19719
C          2.40021        0.48385        0.25311
C          2.89282       -0.22597        1.34711
C          4.10161       -0.90764        1.23420
H          4.48135       -1.46744        2.09244
C          4.83990       -0.88560        0.04400
C          4.32426       -0.16053       -1.03984
H          4.87831       -0.13496       -1.98148
C          3.11701        0.52330       -0.94243
C          6.15806       -1.59083       -0.06110
H          6.32987       -1.97685       -1.07570
H          6.22704       -2.42888        0.64588
H          6.98441       -0.89803        0.16853
C         -2.40026        0.48393        0.25301
C         -3.11762        0.52412       -0.94216
C         -4.32488       -0.15972       -1.03945
H         -4.87938       -0.13356       -1.98081
C         -4.83997       -0.88555        0.04415
C         -4.10112       -0.90832        1.23400
H         -4.48044       -1.46867        2.09206
C         -2.89233       -0.22663        1.34678
C         -6.15808       -1.59087       -0.06082
H         -6.98441       -0.89847        0.17012
H         -6.22642       -2.42970        0.64530
H         -6.33050       -1.97584       -1.07572
N          1.16157        1.19916        0.36291
N         -1.16160        1.19922        0.36270
Au        -0.00001       -1.37299       -0.24677
C          0.00008        3.32041        0.17690
C          0.00032        3.88634       -1.21782
C          0.00016        4.80166       -0.03070
H         -0.91744        3.80186       -1.80593
H          0.91827        3.80180       -1.80563
H          0.91689        5.34875        0.20439
H         -0.91660        5.34881        0.20409
H         -2.72226        1.08033       -1.79553
H         -2.32724       -0.24660        2.28163
H          2.32814       -0.24541        2.28222
H          2.72121        1.07895       -1.79596
