48
6s_cy4_ptolu_au.log	Energy: -663919.6445253
C         -0.00868        0.40093        0.26931
C          1.26817        2.41237        0.80383
H          2.19225        2.80246        0.35488
H          1.37317        2.49639        1.89935
C         -1.18262        2.47159        0.82670
H         -1.26771        2.56002        1.92388
H         -2.09283        2.90402        0.38887
C          2.38901        0.25565        0.30224
C          2.81883       -0.57066        1.33976
C          4.00971       -1.27935        1.20455
H          4.33978       -1.92939        2.01859
C          4.79358       -1.16903        0.04904
C          4.34180       -0.32690       -0.97713
H          4.93182       -0.23043       -1.89192
C          3.15232        0.38385       -0.85755
C          6.09332       -1.90436       -0.07696
H          6.29027       -2.20106       -1.11676
H          6.11184       -2.80561        0.55097
H          6.93096       -1.26301        0.24335
C         -2.40908        0.37781        0.30096
C         -3.10272        0.47158       -0.90509
C         -4.32763       -0.17307       -1.04227
H         -4.86403       -0.10462       -1.99196
C         -4.88361       -0.91182        0.01190
C         -4.16768       -0.98849        1.21352
H         -4.57887       -1.56037        2.04901
C         -2.94156       -0.34673        1.36603
C         -6.21990       -1.57421       -0.13503
H         -7.02919       -0.86584        0.10754
H         -6.32302       -2.43347        0.54173
H         -6.38833       -1.92030       -1.16447
N          1.16699        0.99475        0.43593
N         -1.15115        1.05111        0.45281
Au        -0.06243       -1.52095       -0.28124
C          0.05333        3.17029        0.30998
C          0.11264        3.45500       -1.21256
C          0.16527        4.68982        0.56284
C          0.62240        4.87451       -0.89748
H         -0.89166        3.46050       -1.66252
H          0.75528        2.79748       -1.81885
H         -0.82050        5.13913        0.75511
H          0.84916        5.00863        1.36410
H          0.16893        5.70154       -1.45966
H          1.71468        4.96224       -0.98925
H          2.80740        1.02930       -1.66887
H          2.22033       -0.65684        2.24977
H         -2.67588        1.03963       -1.73521
H         -2.39394       -0.40937        2.30931
