54
6s_cyhexane_dIphme_au.log	Energy: -713192.7952402
C         -0.08757        0.08700        0.32029
C          1.52761        1.80442        0.96181
H          2.53344        2.00730        0.57444
H          1.59395        1.82587        2.06314
C         -0.85917        2.33023        0.90361
H         -0.97144        2.40152        1.99922
H         -1.65578        2.93878        0.45330
C          2.24115       -0.49390        0.36641
C          2.52042       -1.41378        1.37583
C          3.56595       -2.31839        1.20987
H          3.77779       -3.04104        2.00174
C          4.35288       -2.31478        0.05121
C          4.05480       -1.37542       -0.94637
H          4.64972       -1.35802       -1.86294
C          3.01109       -0.46849       -0.79611
C          5.50023       -3.26587       -0.10750
H          5.63377       -3.56595       -1.15640
H          5.36245       -4.17205        0.49808
H          6.44099       -2.79225        0.21837
C         -2.44827        0.52207        0.30974
C         -3.12612        0.86767       -0.85884
C         -4.44778        0.46893       -1.02719
H         -4.97237        0.73390       -1.94856
C         -5.11657       -0.27150       -0.04174
C         -4.41422       -0.60420        1.12340
H         -4.91320       -1.18065        1.90627
C         -3.09196       -0.20827        1.30757
C         -6.55111       -0.66705       -0.21992
H         -6.78148       -0.88716       -1.27188
H         -7.21836        0.15207        0.09526
H         -6.80664       -1.54883        0.38341
N          1.17166        0.44733        0.53066
N         -1.08864        0.93994        0.49171
C          0.51078        2.82583        0.46061
C          0.56346        2.95946       -1.07284
C          0.77384        4.19301        1.10932
C          1.84105        3.62440       -1.57447
H         -0.30134        3.57137       -1.38358
H          0.42872        1.97546       -1.55259
C          2.05334        4.85719        0.61115
H         -0.08426        4.84794        0.87687
H          0.79188        4.08586        2.20708
C          2.06494        4.97652       -0.90809
H          1.78645        3.73772       -2.66823
H          2.71147        2.97022       -1.38655
H          2.15089        5.85004        1.07603
H          2.93515        4.28339        0.94682
H          3.01135        5.42173       -1.25097
H          1.26517        5.67027       -1.22293
H         -2.55675       -0.46458        2.22495
H         -2.61265        1.43693       -1.63746
H          2.78311        0.25316       -1.58428
H          1.91862       -1.41975        2.28769
Au        -0.48246       -1.77385       -0.29607
