73
6s_cypentane_dIad_au.log	Energy: -837852.9854452
C         -0.00565        0.24683       -0.26561
C         -1.24736        2.35439       -0.40000
H         -1.89573        2.66465        0.43197
H         -1.73012        2.67504       -1.33325
C          1.03546        2.18202       -1.15174
H          0.64290        2.11667       -2.18195
H          2.02233        2.64179       -1.20227
N         -1.17502        0.88360       -0.38263
N          1.14394        0.83649       -0.58690
C          0.11285        3.00931       -0.28251
C          0.57681        3.11399        1.18053
C          0.04423        4.48337       -0.69571
C         -0.13164        4.36047        1.74038
H          1.67056        3.25407        1.19258
H          0.36875        2.20439        1.76482
C         -0.57083        5.19171        0.51403
H         -0.51069        4.64534       -1.63290
H          1.07344        4.84224       -0.86508
H         -0.99914        4.08087        2.35685
H          0.53803        4.92524        2.40413
H         -1.66864        5.20806        0.42882
H         -0.25516        6.24240        0.57683
C         -2.51087        0.17280       -0.33218
C         -2.52080       -1.04227       -1.27566
C         -2.84960       -0.23462        1.10786
C         -3.63880        1.10339       -0.82996
H         -1.71671       -1.75315       -1.02086
H         -2.31574       -0.69824       -2.30331
C         -3.86134       -1.77571       -1.19909
H         -2.87618        0.66533        1.74571
H         -2.05471       -0.88639        1.51848
C         -4.19017       -0.97172        1.15247
H         -3.43293        1.42381       -1.86388
H         -3.70934        2.00643       -0.20831
C         -4.99495        0.38706       -0.77481
H         -3.81089       -2.66402       -1.84833
C         -4.12282       -2.20497        0.24756
C         -4.97454       -0.84496       -1.67581
H         -4.39217       -1.27981        2.19049
C         -5.29463       -0.03196        0.66489
H         -5.76322        1.09448       -1.12421
H         -3.32544       -2.88756        0.59284
H         -5.06620       -2.77017        0.30892
H         -4.80415       -0.55355       -2.72523
H         -5.94799       -1.35949       -1.64040
H         -6.27325       -0.53510        0.71649
H         -5.35683        0.85322        1.31943
C          2.50283        0.19003       -0.42401
C          3.62384        1.13169       -0.90367
C          2.79158       -0.11810        1.05401
C          2.58964       -1.07831       -1.28936
H          3.62488        2.05948       -0.30938
H          3.47089        1.40419       -1.96000
C          4.99720        0.46185       -0.75363
H          2.00255       -0.76611        1.47761
H          2.76410        0.82136        1.63045
C          4.14645       -0.81277        1.20275
H          2.42360       -0.80348       -2.34422
H          1.78843       -1.79065       -1.02315
C          3.94673       -1.76120       -1.10929
H          5.75820        1.17297       -1.11118
C          5.24898        0.12774        0.71587
C          5.04861       -0.81645       -1.58837
H          4.30317       -1.05484        2.26577
C          4.15499       -2.09788        0.36995
H          3.95861       -2.68553       -1.70813
H          5.26151        1.04688        1.32466
H          6.23637       -0.34631        0.83313
H          4.91332       -0.58566       -2.65786
H          6.03573       -1.29488       -1.48739
H          5.11010       -2.62942        0.50565
H          3.36223       -2.78376        0.71952
Au         0.01716       -1.62425        0.54480
