63
6s_cypentane_dImes_au.log	Energy: -787072.3589688
C         -0.03290        0.22826        0.18621
C          1.38408        2.10620        0.84230
H          2.31973        2.46326        0.39085
H          1.53821        2.09491        1.93466
C         -1.06730        2.31079        0.91412
H         -1.14375        2.28774        2.01459
H         -1.95107        2.84261        0.53435
C          2.34197       -0.10947        0.26065
C          2.74134       -0.86733        1.37320
C          3.88664       -1.65529        1.24640
H          4.21026       -2.25278        2.10297
C          4.62828       -1.69979        0.06214
C          4.19009       -0.93395       -1.02266
H          4.75154       -0.96454       -1.96036
C          3.05329       -0.12748       -0.94929
C          1.94807       -0.86950        2.64745
H          1.71620        0.14658        2.99985
H          2.49607       -1.38236        3.44804
H          0.98683       -1.39473        2.51791
C          5.87671       -2.52403       -0.03335
H          6.05163       -2.87623       -1.05950
H          5.83730       -3.39771        0.63192
H          6.75542       -1.92703        0.26175
C          2.60065        0.67177       -2.13455
H          1.56329        0.42890       -2.41485
H          3.23906        0.47472       -3.00502
H          2.63694        1.75481       -1.93760
C         -2.42788        0.33212        0.24978
C         -3.05362        0.37421       -1.00710
C         -4.31185       -0.21692       -1.12638
H         -4.80983       -0.19860       -2.09960
C         -4.95011       -0.82874       -0.04240
C         -4.29061       -0.84735        1.18946
H         -4.77086       -1.32873        2.04571
C         -3.03083       -0.27042        1.36495
C         -2.39296        1.02270       -2.18705
H         -2.23458        2.09957       -2.02306
H         -3.00816        0.91079       -3.08887
H         -1.40455        0.58297       -2.39579
C         -6.31773       -1.42372       -0.19356
H         -7.09160       -0.65448       -0.03566
H         -6.49577       -2.22232        0.53975
H         -6.47020       -1.83640       -1.20073
C         -2.36132       -0.29587        2.70785
H         -1.28252       -0.49700        2.63130
H         -2.80404       -1.06857        3.34985
H         -2.48000        0.66610        3.23309
N          1.17899        0.72976        0.37905
N         -1.13157        0.93655        0.40427
C          0.20905        3.00809        0.47753
C          0.23106        3.38388       -1.01298
C          0.37094        4.38096        1.14332
C          1.29798        4.48025       -1.12894
H         -0.75795        3.79103       -1.27810
H          0.41132        2.52693       -1.67784
C          1.38939        5.12811        0.27181
H          0.66614        4.30994        2.20187
H         -0.60497        4.89328        1.11780
H          2.26985        4.05607       -1.42661
H          1.03758        5.20589       -1.91202
H          2.40429        5.02503        0.68474
H          1.18031        6.20651        0.24924
Au        -0.20973       -1.65791       -0.44875
