52
6s_cyhexane_dIterbutyl_au.log	Energy: -571471.2845800
C         -0.30040        0.11195        0.38293
C          1.93676       -0.30734        1.09282
H          2.64862       -1.12931        1.03512
H          1.91960        0.03816        2.14162
C          1.34171        1.92518        0.41873
H          1.55503        2.43154        1.37134
H          1.41380        2.67727       -0.38053
N          0.61280       -0.80012        0.71070
N         -0.04075        1.42068        0.43383
C          2.36160        0.83444        0.18038
C          2.39512        0.41151       -1.29881
C          3.74831        1.35046        0.59631
C          3.51078       -0.57846       -1.61318
H          2.55353        1.32425       -1.89897
H          1.41903        0.00861       -1.61475
C          4.87709        0.37644        0.27333
H          3.92982        2.30166        0.06560
H          3.74465        1.59408        1.67237
C          4.86962       -0.02987       -1.19531
H          3.50248       -0.81014       -2.68946
H          3.32546       -1.53982       -1.10035
H          5.84049        0.83665        0.54060
H          4.79426       -0.52407        0.90760
H          5.66177       -0.76806       -1.39311
H          5.10682        0.85154       -1.81704
C          0.34615       -2.29596        0.74188
C         -0.85618       -2.58958        1.64299
H         -1.79815       -2.15580        1.27408
H         -1.00701       -3.67585        1.70794
H         -0.68276       -2.20405        2.65840
C          1.53598       -3.03718        1.36053
H          1.25052       -4.09300        1.45891
H          2.43540       -3.01387        0.72942
H          1.78538       -2.67285        2.36686
C         -1.11363        2.49109        0.36239
C         -2.30990        2.13030        1.24709
H         -1.98125        1.87653        2.26568
H         -2.98105        2.99768        1.30956
H         -2.91340        1.29269        0.86583
C         -0.56271        3.80592        0.93195
H          0.24975        4.23858        0.33586
H         -1.38046        4.53848        0.93027
H         -0.22549        3.69321        1.97213
C         -1.51336        2.71221       -1.09415
H         -0.64577        3.00806       -1.70294
H         -1.94619        1.80174       -1.54182
H         -2.26678        3.50939       -1.16597
C          0.16263       -2.83006       -0.67817
H          0.02533       -3.92035       -0.65176
H         -0.71877       -2.39913       -1.18120
H          1.04477       -2.60915       -1.29678
Au        -2.05369       -0.49031       -0.44679
