53
6s_dih_dImes_au.log	Energy: -689326.5474729
C         -0.00002        0.76078        0.15439
C          1.23920        2.83053        0.53567
H          2.14985        3.20181        0.04635
H          1.35990        2.99817        1.61905
C         -0.00001        3.51981        0.00685
H         -0.00002        3.49058       -1.09452
H         -0.00001        4.57663        0.30757
C         -1.23923        2.83053        0.53568
H         -1.35991        2.99818        1.61906
H         -2.14988        3.20182        0.04638
C          2.39736        0.66072        0.16017
C          2.95729        0.07581        1.30582
C          4.16306       -0.61196        1.15696
H          4.61320       -1.07871        2.03724
C          4.80972       -0.71654       -0.07866
C          4.21431       -0.11658       -1.19324
H          4.70335       -0.19393       -2.16805
C          3.00953        0.58139       -1.10019
C          2.27931        0.16964        2.64128
H          2.16790        1.21372        2.97331
H          2.85568       -0.36005        3.41031
H          1.27004       -0.27239        2.61659
C          6.12410       -1.42705       -0.20006
H          6.25288       -1.87281       -1.19621
H          6.22616       -2.22152        0.55213
H          6.95784       -0.72204       -0.04698
C          2.37865        1.20827       -2.30868
H          1.37243        0.80005       -2.49795
H          2.98615        1.02987       -3.20498
H          2.26789        2.29891       -2.19733
C         -2.39739        0.66072        0.16019
C         -3.00958        0.58142       -1.10017
C         -4.21436       -0.11655       -1.19321
H         -4.70342       -0.19387       -2.16802
C         -4.80974       -0.71656       -0.07865
C         -4.16306       -0.61202        1.15697
H         -4.61318       -1.07880        2.03724
C         -2.95729        0.07576        1.30582
C         -2.37873        1.20833       -2.30865
H         -2.26804        2.29898       -2.19731
H         -2.98620        1.02988       -3.20496
H         -1.37248        0.80018       -2.49790
C         -6.12411       -1.42709       -0.20005
H         -6.95787       -0.72206       -0.04721
H         -6.22625       -2.22141        0.55228
H         -6.25277       -1.87304       -1.19613
C         -2.27926        0.16952        2.64127
H         -1.27001       -0.27254        2.61653
H         -2.85563       -0.36018        3.41030
H         -2.16781        1.21359        2.97333
N          1.16220        1.38776        0.28007
N         -1.16223        1.38776        0.28008
Au         0.00002       -1.19836       -0.24074
