65
6s_diet_dImes_au.log	Energy: -787817.3836860
C          1.23549        2.41728       -0.09732
C         -0.06957        3.17926        0.16058
C         -1.25977        2.34539       -0.31856
C         -0.00415        0.30428        0.10800
H          2.02352        2.77491        0.58243
H         -1.36957        2.42709       -1.41067
N         -1.17377        0.91693        0.00085
N          1.14736        0.96077        0.06935
H         -2.19219        2.72502        0.12197
H          1.59347        2.60583       -1.12010
C         -2.38848        0.15376       -0.15045
C         -3.24886       -0.00566        0.94695
C         -2.69825       -0.37465       -1.41665
C         -4.43077       -0.72262        0.75248
C         -3.89328       -1.08270       -1.55523
C         -4.77601       -1.26638       -0.48760
H         -5.10509       -0.85867        1.60224
H         -4.14367       -1.50089       -2.53394
C          2.38249        0.22743       -0.07654
C          2.85823       -0.01238       -1.37853
C          3.07827       -0.22820        1.05720
C          4.05452       -0.71808       -1.52182
C          4.26544       -0.93455        0.85320
C          4.77801       -1.18421       -0.42240
H          4.42751       -0.91641       -2.53043
H          4.80855       -1.30322        1.72770
C         -1.77236       -0.22922       -2.58950
H         -1.43265        0.80696       -2.73494
H         -0.87070       -0.85252       -2.46913
H         -2.26744       -0.54637       -3.51606
C         -2.91224        0.54540        2.29895
H         -1.99954        0.08080        2.70485
H         -2.73799        1.63159        2.27159
H         -3.72635        0.35677        3.01000
C         -6.07158       -1.99647       -0.67494
H         -6.38777       -2.50238        0.24793
H         -6.87330       -1.29256       -0.95309
H         -6.00235       -2.74572       -1.47575
C          2.59810        0.01803        2.45637
H          2.88814        1.02310        2.80272
H          1.50617       -0.05688        2.54736
H          3.05020       -0.70225        3.15078
C          2.13481        0.46654       -2.60426
H          1.05067        0.54818       -2.45256
H          2.50293        1.45596       -2.92310
H          2.30438       -0.21903       -3.44564
C          6.07598       -1.91164       -0.60300
H          6.91981       -1.20226       -0.58611
H          6.24702       -2.64028        0.20170
H          6.11341       -2.44105       -1.56515
C         -0.02746        4.49835       -0.65001
H         -0.86160        5.13032       -0.30220
H          0.88698        5.03086       -0.33862
C         -0.21434        3.59063        1.64271
H          0.44285        4.46187        1.80321
H         -1.23969        3.97401        1.77831
C         -0.06601        4.41390       -2.16888
H         -1.04807        4.10375       -2.55584
H          0.14053        5.40321       -2.60143
H          0.69003        3.72594       -2.58024
C          0.10012        2.56236        2.71342
H          1.16454        2.29736        2.71797
H         -0.12943        2.97217        3.70769
H         -0.47778        1.63663        2.60133
Au         0.02430       -1.68191        0.33391
