53
6s_diet_dIphme_au.log	Energy: -689311.3685271
C          1.22274        2.36981       -0.46964
C          0.12266        3.14814        0.24920
C         -1.21269        2.46052       -0.02794
C         -0.00513        0.31098       -0.09068
H          2.21262        2.72356       -0.15169
H         -1.62527        2.76932       -1.00135
N         -1.14067        0.99378       -0.03874
N          1.16518        0.92690       -0.20168
H         -1.95180        2.74712        0.73550
H          1.14736        2.51963       -1.55793
C         -2.40171        0.31105       -0.07957
C         -3.16866        0.20066        1.07979
C         -2.86755       -0.21733       -1.28332
C         -4.39546       -0.45285        1.03028
C         -4.09596       -0.87154       -1.31723
C         -4.88293       -0.99900       -0.16553
H         -4.98735       -0.54619        1.94418
H         -4.45325       -1.28835       -2.26208
C          2.40061        0.20760       -0.16510
C          3.28113        0.30100       -1.24415
C          2.74193       -0.56783        0.94463
C          4.48641       -0.39086       -1.21235
C          3.94918       -1.26312        0.95738
C          4.84450       -1.18738       -0.11518
H          5.16314       -0.31902       -2.06753
H          4.20575       -1.86686        1.83136
C         -6.22131       -1.67156       -0.21354
H         -7.02087       -0.92752       -0.36413
H         -6.28372       -2.39189       -1.04065
H         -6.44157       -2.19983        0.72478
C          6.15879       -1.90674       -0.08560
H          6.97544       -1.21119        0.16811
H          6.16466       -2.71070        0.66268
H          6.39904       -2.34414       -1.06545
C          0.05938        4.58851       -0.31172
H         -0.80403        5.07997        0.16779
H          0.94401        5.12944        0.06279
C          0.39220        3.28180        1.76330
H          1.35263        3.81131        1.88006
H         -0.37137        3.97392        2.15708
C         -0.03159        4.76960       -1.81957
H         -0.86608        4.21024       -2.27135
H         -0.20069        5.82974       -2.05605
H          0.89208        4.47644       -2.34047
C          0.40962        2.03264        2.63078
H          1.25104        1.36872        2.39119
H          0.51986        2.31854        3.68667
H         -0.52007        1.44901        2.55263
H          3.01787        0.89972       -2.11852
H          2.07348       -0.61520        1.80701
H         -2.79953        0.61269        2.02180
H         -2.26647       -0.11525       -2.19012
Au        -0.08374       -1.69054       -0.01201
