65
6s_dinbu_dIphme_au.log	Energy: -787806.8180894
C          1.15878        2.04698        0.00309
C         -0.07870        2.60294        0.70715
C         -1.31605        1.95944        0.08906
C         -0.02234       -0.09036       -0.23022
H          2.05941        2.26528        0.59484
H         -1.52694        2.38267       -0.90565
N         -1.19474        0.50636       -0.07076
N          1.11478        0.58999       -0.18951
H         -2.19972        2.14933        0.71451
H          1.29208        2.52099       -0.98217
C         -2.41835       -0.22956       -0.20089
C         -3.15558       -0.55282        0.93771
C         -2.88021       -0.59636       -1.46469
C         -4.34799       -1.25654        0.80527
C         -4.07360       -1.30398       -1.58184
C         -4.82975       -1.64442       -0.45309
H         -4.91690       -1.51608        1.70155
H         -4.42789       -1.59344       -2.57425
C          2.37757       -0.06948       -0.35060
C          3.14405        0.18569       -1.48701
C          2.85116       -0.94082        0.63155
C          4.37711       -0.43987       -1.63978
C          4.08389       -1.56564        0.46095
C          4.87111       -1.32541       -0.67195
H          4.96699       -0.24242       -2.53833
H          4.44569       -2.24974        1.23257
C         -6.13208       -2.37424       -0.58534
H         -6.97306       -1.66154       -0.60333
H         -6.17712       -2.95830       -1.51470
H         -6.30109       -3.05479        0.26109
C          6.21441       -1.96998       -0.83361
H          7.01126       -1.29476       -0.48063
H          6.29066       -2.89961       -0.25327
H          6.42697       -2.20021       -1.88720
C         -0.12627        4.13164        0.48364
H         -0.88706        4.54730        1.16583
H          0.83508        4.53820        0.84362
C         -0.01364        2.38686        2.23484
H          0.75614        3.07553        2.62467
H         -0.96699        2.74938        2.65726
C         -0.38899        4.65794       -0.92212
H         -1.42365        4.43249       -1.23308
H          0.26443        4.15822       -1.66054
C          0.27758        0.99956        2.79120
H          1.26084        0.65112        2.43405
H         -0.46076        0.26486        2.42841
C         -0.17443        6.16410       -1.02521
H         -0.80841        6.66932       -0.27590
H          0.86645        6.39998       -0.74264
C         -0.47147        6.71860       -2.40816
H         -0.30315        7.80444       -2.44963
H          0.17099        6.25459       -3.17362
H         -1.51809        6.53468       -2.69849
C          0.28180        0.97160        4.31443
H          1.01301        1.70899        4.68856
H         -0.70046        1.31154        4.68680
C          0.60051       -0.40212        4.88061
H         -0.13349       -1.15417        4.54795
H          1.59720       -0.74619        4.55952
H          0.59334       -0.39863        5.98015
H          2.76979        0.86050       -2.26002
H          2.25770       -1.12585        1.52955
H         -2.78948       -0.26298        1.92530
H         -2.30376       -0.32723       -2.35312
Au         0.02087       -2.07152       -0.51997
