45
6s_dime_dIterbutyl_au.log	Energy: -498346.0767732
C          2.34208        1.21749        0.27655
C          2.88722        0.00479       -0.45382
C          2.34640       -1.20856        0.27871
C          0.24739        0.00051        0.30378
H          2.60658        2.12150       -0.28507
H          2.80240       -1.29127        1.27822
C          2.45100        0.00270       -1.92072
H          2.84270        0.89000       -2.44005
H          2.84522       -0.88450       -2.43831
H          1.35731        0.00105       -2.04242
C          4.41102        0.00759       -0.35961
H          4.83451       -0.87916       -0.85441
H          4.83132        0.89526       -0.85549
H          4.75320        0.00884        0.68672
N          0.88448       -1.16650        0.38988
N          0.88045        1.16979        0.38920
H          2.61511       -2.11267       -0.28069
H          2.79864        1.30423        1.27545
C          0.17844        2.50594        0.53622
C          0.18730       -2.50527        0.53627
C         -0.24651        3.00583       -0.84106
H         -0.97282        2.32146       -1.31071
H         -0.71967        3.99491       -0.76070
H          0.61861        3.09600       -1.51526
C          1.14564        3.51716        1.16888
H          1.54228        3.15840        2.12917
H          1.98293        3.79561        0.51767
H          0.58465        4.43942        1.36881
C         -0.99532       -2.41134        1.50385
H         -1.35771       -3.42573        1.71839
H         -0.69200       -1.94681        2.45360
H         -1.85654       -1.85076        1.10980
C         -0.23454       -3.00664       -0.84142
H          0.63155       -3.09326       -1.51485
H         -0.70383       -3.99761       -0.76163
H         -0.96314       -2.32508       -1.31159
C          1.15771       -3.51297        1.16966
H          0.59971       -4.43694        1.37005
H          1.99596       -3.78911        0.51868
H          1.55309       -3.15240        2.12980
C         -1.00301        2.40747        1.50478
H         -1.36886        3.42047        1.72001
H         -1.86254        1.84392        1.11119
H         -0.69725        1.94363        2.45408
Au        -1.67348       -0.00279       -0.35565
