47
6s_dime_dIphme_au.log	Energy: -640067.8778442
C         -1.22601        2.63295        0.56314
C         -0.00000        3.35479        0.01269
C          1.22602        2.63295        0.56311
C          0.00000        0.55293        0.18541
H         -2.14453        3.00735        0.08987
H          1.32777        2.79479        1.64983
C         -0.00002        3.31794       -1.51699
H         -0.88762        3.83105       -1.91608
H          0.88756        3.83109       -1.91609
H          0.00000        2.29087       -1.91311
C         -0.00000        4.79680        0.51238
H          0.88752        5.33526        0.14804
H         -0.88753        5.33526        0.14806
H          0.00001        4.84583        1.61212
N          1.15793        1.19030        0.30230
N         -1.15793        1.19030        0.30234
H          2.14453        3.00736        0.08983
H         -1.32775        2.79480        1.64986
C          2.39958        0.47693        0.21719
C          3.14596        0.52785       -0.95957
C          2.86417       -0.24522        1.31539
C          4.35416       -0.15692       -1.03418
C          4.07385       -0.92897        1.22486
C          4.84136       -0.89559        0.05376
H          4.93144       -0.12194       -1.96146
H          4.43174       -1.49767        2.08662
C         -2.39958        0.47693        0.21719
C         -2.86435       -0.24495        1.31550
C         -3.14578        0.52759       -0.95968
C         -4.07404       -0.92868        1.22494
C         -4.35399       -0.15715       -1.03432
C         -4.84138       -0.89555        0.05372
H         -4.43208       -1.49716        2.08679
H         -4.93114       -0.12236       -1.96169
C          6.16041       -1.60234       -0.02726
H          6.34689       -1.99438       -1.03704
H          6.98391       -0.90880        0.21016
H          6.21813       -2.43640        0.68533
C         -6.16041       -1.60233       -0.02734
H         -6.98395       -0.90881        0.21000
H         -6.34681       -1.99445       -1.03710
H         -6.21814       -2.43637        0.68529
H         -2.27864       -0.27008        2.23749
H         -2.77299        1.09305       -1.81710
H          2.77331        1.09351       -1.81691
H          2.27831       -0.27055        2.23729
Au         0.00001       -1.40893       -0.20357
