41
6s_dih_dIphme_au.log	Energy: -590815.9854055
C         -0.00000        0.87465        0.05017
C          1.24030        2.97343        0.27585
H          2.14708        3.30744       -0.24646
H          1.37187        3.21320        1.34466
C         -0.00002        3.62549       -0.29430
H         -0.00005        3.52996       -1.39182
H         -0.00002        4.69905       -0.05998
C         -1.24030        2.97342        0.27591
H         -1.37180        3.21317        1.34474
H         -2.14711        3.30744       -0.24633
C          2.39891        0.78848        0.11415
C          2.85372        0.17604        1.28120
C          4.05923       -0.52029        1.26555
H          4.40918       -1.00311        2.18127
C          4.83233       -0.60811        0.10078
C          4.35482        0.02126       -1.05777
H          4.93639       -0.03979       -1.98098
C          3.15076        0.71752       -1.05805
C          6.14704       -1.32731        0.09767
H          6.97272       -0.61996        0.28062
H          6.34108       -1.80981       -0.87059
H          6.19187       -2.09390        0.88326
C         -2.39892        0.78847        0.11416
C         -3.15067        0.71738       -1.05810
C         -4.35474        0.02114       -1.05783
H         -4.93624       -0.04001       -1.98108
C         -4.83235       -0.60810        0.10075
C         -4.05934       -0.52014        1.26558
H         -4.40937       -1.00285        2.18133
C         -2.85382        0.17617        1.28124
C         -6.14705       -1.32731        0.09762
H         -6.97275       -0.61996        0.28051
H         -6.19190       -2.09387        0.88324
H         -6.34104       -1.80986       -0.87063
N          1.16122        1.51479        0.12503
N         -1.16123        1.51478        0.12505
H         -2.78604        1.19581       -1.97022
H         -2.26309        0.24490        2.19783
H          2.26290        0.24467        2.19775
H          2.78619        1.19603       -1.97016
Au         0.00001       -1.11239       -0.18614
