63
6s_dinbu_dIterbutyl_au.log	Energy: -646085.5156337
C          1.68193        0.99963       -0.69895
C          2.15479       -0.43870       -0.62127
C          1.71916       -0.94181        0.74615
C         -0.33255        0.21638        0.45960
H          1.63074        1.32231       -1.75043
H          2.17751       -0.33021        1.54129
N          0.26486       -0.89049        0.89237
N          0.35552        1.21651       -0.09773
H          2.06233       -1.96879        0.88047
H          2.40493        1.64987       -0.19124
C          3.69541       -0.47346       -0.71382
H          3.99632       -1.52104       -0.88666
H          3.97971        0.06438       -1.63561
C          1.61610       -1.31634       -1.77723
H          2.30990       -1.18026       -2.62483
H          1.73264       -2.37415       -1.48089
C          4.50177        0.08018        0.45428
H          4.37043       -0.55479        1.34753
H          4.13952        1.08436        0.74247
C          0.20789       -1.09813       -2.31934
H          0.07497       -0.04422       -2.61849
H         -0.55284       -1.29213       -1.54910
C          5.99086        0.17272        0.14094
H          6.35649       -0.82303       -0.16478
H          6.13377        0.82509       -0.73827
C          6.81813        0.68924        1.30592
H          7.88496        0.74754        1.04602
H          6.49632        1.69778        1.61132
H          6.72740        0.03237        2.18562
C         -0.09657       -1.98443       -3.52042
H          0.64240       -1.78814       -4.31653
H          0.04762       -3.04179       -3.23607
C         -1.50286       -1.78517       -4.06050
H         -2.26231       -2.01657       -3.29544
H         -1.66434       -0.74423       -4.38401
H         -1.70050       -2.43365       -4.92615
C         -0.22223        2.60270       -0.31205
C         -1.09651        2.60954       -1.56401
H         -1.93864        1.90206       -1.48077
H         -1.51753        3.61180       -1.72672
H         -0.51524        2.33737       -2.45743
C         -0.98304        3.07398        0.93032
H         -1.23679        4.13625        0.81214
H         -1.92948        2.54049        1.10449
H         -0.36237        2.96737        1.83222
C          0.91896        3.61061       -0.50461
H          0.46972        4.60817       -0.59711
H          1.59633        3.63538        0.36107
H          1.50527        3.44155       -1.41604
C         -0.44804       -2.01427        1.62662
C         -1.18436       -1.44694        2.84315
H         -1.64351       -2.26859        3.40980
H         -0.48474       -0.91875        3.50755
H         -1.99114       -0.74700        2.57755
C         -1.37843       -2.77070        0.67897
H         -0.81735       -3.20136       -0.16301
H         -1.86838       -3.59231        1.22046
H         -2.17417       -2.13053        0.26365
C          0.56607       -3.02716        2.16639
H          0.00828       -3.76929        2.75311
H          1.08623       -3.57971        1.37148
H          1.30556       -2.57102        2.83918
Au        -2.36179        0.29694        0.41910
