77
6s_dinbu_dImes_au.log	Energy: -886313.6283718
C          1.38512        1.84658        0.46862
C          0.12187        2.61031        0.88215
C         -1.07318        2.06842        0.09649
C         -0.02074       -0.11710       -0.00026
H          2.14718        1.91406        1.25927
H         -1.05288        2.44551       -0.93746
N         -1.13097        0.60503        0.02677
N          1.17738        0.41966        0.18687
H         -2.01454        2.41463        0.54474
H          1.82534        2.29652       -0.43349
C         -2.39594        0.02236       -0.34667
C         -3.31210       -0.34370        0.65160
C         -2.69304       -0.12249       -1.71386
C         -4.53859       -0.87586        0.24938
C         -3.93359       -0.66072       -2.05986
C         -4.87273       -1.04098       -1.09726
H         -5.25785       -1.16998        1.01847
H         -4.17488       -0.78164       -3.11939
C          2.35978       -0.34648       -0.12626
C          2.88605       -0.24274       -1.42683
C          2.95668       -1.16643        0.84737
C          4.03231       -0.97881       -1.73256
C          4.09749       -1.88497        0.48293
C          4.65823       -1.80186       -0.79398
H          4.44375       -0.91134       -2.74345
H          4.56361       -2.53468        1.22874
C         -1.71015        0.25013       -2.78587
H         -1.31028        1.26690       -2.65674
H         -0.84916       -0.43866       -2.79971
H         -2.18085        0.20525       -3.77611
C         -2.99128       -0.20012        2.10828
H         -2.16010       -0.86048        2.40271
H         -2.69299        0.82654        2.36746
H         -3.85968       -0.46235        2.72562
C         -6.21334       -1.57824       -1.49845
H         -6.61307       -2.27165       -0.74548
H         -6.94091       -0.75682       -1.60579
H         -6.16752       -2.10192       -2.46343
C          2.42064       -1.29092        2.24247
H          2.76141       -0.45446        2.87340
H          1.32297       -1.29466        2.27511
H          2.78139       -2.21523        2.71255
C          2.26533        0.62954       -2.47992
H          1.17819        0.72818       -2.36128
H          2.69505        1.64503       -2.46236
H          2.45763        0.22241       -3.48174
C          5.90627       -2.55687       -1.13903
H          6.79831       -1.95171       -0.90750
H          5.98719       -3.48985       -0.56403
H          5.94783       -2.80335       -2.20911
C          0.32133        4.10132        0.52299
H         -0.47167        4.68026        1.02606
H          1.26150        4.42131        1.00563
C         -0.12122        2.55454        2.40654
H          0.52973        3.31310        2.87435
H         -1.15091        2.90709        2.59181
C          0.36240        4.49471       -0.94907
H         -0.64333        4.41933       -1.39730
H          1.00141        3.79954       -1.52498
C          0.10699        1.23858        3.13170
H          1.17994        0.99464        3.11550
H         -0.39969        0.41128        2.61339
C          0.87606        5.91468       -1.15924
H          0.25760        6.61181       -0.56764
H          1.89553        5.99402       -0.74291
C          0.87979        6.34056       -2.61757
H          1.26018        7.36545       -2.73585
H          1.51595        5.67910       -3.22756
H         -0.13438        6.31255       -3.04682
C         -0.36278        1.26774        4.57962
H          0.12939        2.10392        5.10597
H         -1.44305        1.49646        4.60581
C         -0.09594       -0.03480        5.31566
H         -0.60454       -0.88249        4.82763
H          0.98062       -0.26752        5.34311
H         -0.45062        0.00735        6.35561
Au        -0.15802       -2.08335       -0.33181
