69
6s_dime_dIad_au.log	Energy: -789358.4800431
C         -1.22538        2.64337       -0.07051
C          0.13903        3.26734       -0.29183
C          1.06363        2.54783        0.67993
C         -0.01751        0.51751        0.11184
H         -1.87127        2.84642       -0.93748
H          0.68027        2.65060        1.71071
C          0.61012        3.08939       -1.73583
H         -0.02290        3.67650       -2.41759
H          1.64537        3.44385       -1.85698
H          0.57146        2.04107       -2.06652
C          0.07944        4.75046        0.06341
H          1.04808        5.23609       -0.12812
H         -0.67709        5.26965       -0.54414
H         -0.17405        4.90332        1.12397
N          1.14410        1.13107        0.33193
N         -1.17531        1.18430        0.12424
H          2.05890        2.99172        0.65314
H         -1.69980        3.09967        0.80879
C         -2.52332        0.49430        0.18317
C         -2.55372       -0.55287        1.30988
C         -3.63910        1.50831        0.51947
C         -2.86460       -0.13374       -1.17449
H         -2.34703       -0.05070        2.26989
H         -1.75899       -1.30642        1.17743
C         -3.90454       -1.27079        1.34524
H         -3.69530        2.30081       -0.23918
H         -3.43271        1.98721        1.49002
C         -5.00535        0.81114        0.57334
H         -2.07827       -0.85368       -1.47241
H         -2.87669        0.65279       -1.94811
C         -4.21528       -0.85007       -1.10662
H         -3.86862       -2.04388        2.12893
C         -5.00545       -0.26001        1.66062
C         -4.16825       -1.92289       -0.01515
H         -5.76384        1.57641        0.80091
C         -5.30748        0.17087       -0.78184
H         -4.41876       -1.31801       -2.08272
H         -4.83380        0.19381        2.65048
H         -5.98617       -0.75994        1.70345
H         -3.37991       -2.66310       -0.24250
H         -5.11951       -2.47750        0.01024
H         -6.29315       -0.32035       -0.75690
H         -5.35508        0.94032       -1.57015
C          2.48993        0.43815        0.28670
C          2.77632       -0.12057       -1.11645
C          3.62948        1.42442        0.60660
C          2.54783       -0.66728        1.35414
H          2.77359        0.70860       -1.84313
H          1.97459       -0.81372       -1.43109
C          4.11608       -0.85936       -1.13726
H          3.48131        1.87336        1.60151
H          3.64995        2.23892       -0.13526
C          4.98887        0.71117        0.57921
H          1.73270       -1.39820        1.20688
H          2.38448       -0.21496        2.34644
C          3.89095       -1.39764        1.30070
H          4.26963       -1.28116       -2.14306
C          5.23708        0.12754       -0.81075
C          4.09529       -1.98440       -0.09885
H          5.76378        1.45706        0.81547
C          5.01135       -0.40761        1.61893
H          3.88233       -2.20705        2.04763
H          5.27038        0.92950       -1.56662
H          6.21459       -0.37943       -0.84011
H          3.28889       -2.70317       -0.33176
H          5.03912       -2.55085       -0.13720
H          5.98837       -0.91626        1.60648
H          4.87845        0.00409        2.63293
Au        -0.02781       -1.46099       -0.38493
