59
6s_dime_dImes_au.log	Energy: -738577.6012137
C         -1.21530        2.55052        0.62318
C          0.01131        3.32376        0.14304
C          1.24690        2.54804        0.59482
C          0.00283        0.50615        0.09781
H         -2.13446        2.96751        0.18752
H          1.38405        2.63812        1.68580
C         -0.00532        3.47449       -1.37835
H         -0.90083        4.02562       -1.70189
H          0.87312        4.04232       -1.71911
H         -0.00065        2.50516       -1.89497
C          0.02016        4.69896        0.80621
H          0.90745        5.27305        0.50019
H         -0.86735        5.27874        0.51178
H          0.02720        4.62164        1.90440
N          1.16534        1.12577        0.24515
N         -1.15474        1.13570        0.24416
H          2.15430        2.95033        0.12226
H         -1.31165        2.62076        1.71990
C          2.39784        0.38370        0.19300
C          3.10719        0.32008       -1.01662
C          2.86201       -0.23506        1.36480
C          4.30987       -0.38798       -1.02781
C          4.07174       -0.92859        1.29853
C          4.81392       -1.01333        0.11689
H          4.87141       -0.45253       -1.96371
H          4.44667       -1.41738        2.20181
C         -2.39234        0.40338        0.18229
C         -2.91325       -0.14337        1.36593
C         -3.04698        0.26976       -1.05328
C         -4.11692       -0.84691        1.28215
C         -4.24692       -0.44170       -1.07950
C         -4.80177       -1.00470        0.07451
H         -4.53166       -1.28665        2.19327
H         -4.76521       -0.56034       -2.03489
C          2.07261       -0.19546        2.64085
H          1.75250        0.82297        2.90660
H          1.16153       -0.81255        2.56522
H          2.66409       -0.58678        3.47827
C          2.58502        0.96781       -2.26412
H          1.57792        0.60119       -2.51958
H          2.51229        2.06140       -2.16056
H          3.24423        0.76022       -3.11650
C          6.12972       -1.73066        0.08412
H          6.32833       -2.16660       -0.90492
H          6.95397       -1.03249        0.30499
H          6.17232       -2.53375        0.83284
C         -2.47662        0.85883       -2.30898
H         -2.40659        1.95575       -2.24890
H         -1.46135        0.48216       -2.51262
H         -3.10489        0.61362       -3.17465
C         -2.22054        0.02148        2.68716
H         -1.12766       -0.06590        2.60002
H         -2.43770        1.00636        3.13252
H         -2.56305       -0.73628        3.40396
C         -6.11065       -1.73332        0.01985
H         -6.94939       -1.02605        0.12871
H         -6.24513       -2.25192       -0.93977
H         -6.19791       -2.47144        0.82901
Au        -0.00769       -1.43863       -0.35976
