44
7s_dih_ptolu_au.log	Energy: -615434.5660655
N          1.14140        1.27686        0.49964
N         -1.12584        1.43700       -0.04696
C          2.75330        0.19842       -0.99199
C         -0.01443        0.72542        0.13822
C         -3.16330        0.60832       -1.13586
C         -2.38940        0.75931        0.01632
C          3.94818       -0.49127       -1.18409
H          4.23848       -0.78384       -2.19603
C         -4.38129       -0.05669       -1.06114
H         -4.97648       -0.18180       -1.96910
C          4.78643       -0.80374       -0.10836
C         -1.18883        2.87437       -0.40120
H         -2.00424        2.95188       -1.13270
H         -1.51578        3.44600        0.48364
C          2.37217        0.57864        0.29543
C         -2.84027        0.24983        1.23359
C          4.38376       -0.40792        1.17649
H          5.01463       -0.65060        2.03525
C          3.19265        0.27603        1.38439
C         -4.06232       -0.41518        1.29313
H         -4.40792       -0.81203        2.25074
C          1.19024        2.62049        1.09395
H          2.08828        2.67026        1.72218
H          0.32166        2.71223        1.76313
C          0.08844        3.43693       -0.99841
H         -0.16843        4.36763       -1.52523
H          0.44887        2.74475       -1.77706
C         -4.85646       -0.57744        0.15194
C          1.18245        3.70395        0.03249
H          2.16349        3.76326       -0.46274
H          1.02327        4.67277        0.53180
C          6.08841       -1.51531       -0.31662
H          6.12840       -2.01080       -1.29592
H          6.26093       -2.27220        0.46224
H          6.92946       -0.80437       -0.26915
C         -6.18781       -1.26106        0.22366
H         -6.99801       -0.51820        0.30855
H         -6.25686       -1.92445        1.09640
H         -6.38549       -1.85425       -0.68051
Au        -0.09361       -1.26474       -0.10325
H         -2.80458        0.99093       -2.09444
H          2.12041        0.45573       -1.84452
H         -2.23497        0.38023        2.13365
H          2.88990        0.55574        2.39608
