72
7s_dIdipp_au.log	Energy: -860759.6851213
N         -1.17801       -0.30545        1.16908
N          1.10455        0.24381        1.09081
C         -0.05047       -0.06513        0.50869
C         -1.32396       -0.52585        2.62728
H         -2.21811       -1.15427        2.72303
H         -1.57716        0.43322        3.11059
C         -0.14412       -1.20441        3.29917
H          0.14281       -2.07887        2.69733
H         -0.49937       -1.61318        4.25658
C          1.06132       -0.29674        3.53583
H          0.97698        0.22108        4.50436
H          1.98166       -0.89752        3.58645
C          1.18229        0.76698        2.46526
H          0.38789        1.52213        2.57547
H          2.13670        1.30190        2.54085
C         -2.43343       -0.18641        0.45963
C         -2.99085        1.11136        0.40158
C         -4.24254        1.27967       -0.22065
H         -4.69486        2.27438       -0.28684
C         -4.83269        0.15610       -0.71923
C         -4.33753       -1.11320       -0.68267
H         -4.87404       -1.97131       -1.10323
C         -3.07674       -1.32381       -0.07995
C         -2.29610        2.34147        0.95691
H         -1.33844        2.01975        1.39553
C         -2.55853       -2.75620       -0.19714
H         -3.46637       -3.37615       -0.10902
C          2.31276        0.25968        0.30521
C          3.02860       -0.94157        0.13782
C          4.21746       -0.89900       -0.61915
H          4.80229       -1.81118       -0.77614
C          4.57887        0.31507       -1.12384
C          3.92282        1.50406       -0.99189
H          4.28156        2.43768       -1.43737
C          2.72707        1.49055       -0.24650
C          2.56534       -2.26502        0.71153
H          1.66356       -2.06030        1.30702
C          1.93925        2.77773       -0.09249
H          1.00087        2.53559        0.43223
C          1.55378        3.35647       -1.45329
H          2.43942        3.65492       -2.03420
H          0.99240        2.62358       -2.05525
H          0.92326        4.24910       -1.32942
C          2.69860        3.80229        0.75113
H          2.08991        4.70695        0.89961
H          2.96477        3.40430        1.74163
H          3.63374        4.10865        0.25779
C          2.16923       -3.23615       -0.39999
H          3.03128       -3.49407       -1.03416
H          1.77503       -4.17206        0.02407
H          1.39407       -2.80327       -1.05167
C          3.60399       -2.87383        1.65164
H          3.88516       -2.17412        2.45296
H          3.21044       -3.79013        2.11702
H          4.52477       -3.14871        1.11479
C         -1.58790       -3.27825        0.85303
H         -0.59299       -2.82189        0.76610
H         -1.96110       -3.13746        1.87658
H         -1.45602       -4.36057        0.70715
C         -2.00777       -3.00432       -1.60529
H         -2.72358       -2.70625       -2.38434
H         -1.07382       -2.43353       -1.76653
H         -1.76751       -4.06886       -1.74624
C         -3.11108        2.99739        2.07098
H         -2.56016        3.84607        2.50386
H         -4.06865        3.38597        1.69214
H         -3.34112        2.28739        2.87963
C         -1.96186        3.33069       -0.15870
H         -2.87254        3.72927       -0.63080
H         -1.39486        4.18569        0.24000
H         -1.35849        2.85458       -0.94615
Au        -0.09519       -0.13158       -1.49874
