42
7s_dIterbutyl_au.log	Energy: -473713.8828035
N          0.96436        1.28431        0.02620
N         -1.28181        0.81618        0.40835
C         -0.04802        0.40776        0.13613
C          0.83369        2.53830       -0.75157
H          1.59683        2.48125       -1.54294
H          1.10077        3.39117       -0.11050
C         -0.51729        2.79364       -1.38746
H         -0.82957        1.91837       -1.97941
H         -0.39385        3.61431       -2.10902
C         -1.56733        3.15299       -0.34687
H         -1.42377        4.18544        0.00940
H         -2.57524        3.11148       -0.78528
C          2.38651        0.92627        0.39907
C          2.40142        0.07471        1.67063
H          1.83656        0.56514        2.47762
H          1.98744       -0.93391        1.52866
H          3.43987       -0.04762        2.00775
C          3.14498        2.21584        0.73708
H          4.13654        1.93722        1.11831
H          3.30975        2.86715       -0.13053
H          2.63661        2.78901        1.52664
C         -2.51905       -0.06123        0.29534
C         -2.44969       -1.18890        1.32630
H         -3.38231       -1.76903        1.29237
H         -1.62288       -1.89375        1.14760
H         -2.33568       -0.78061        2.34106
C         -3.78342        0.74652        0.60169
H         -3.90084        1.62327       -0.04848
H         -4.64406        0.09077        0.41356
H         -3.84927        1.05923        1.65262
C         -2.65092       -0.57780       -1.13864
H         -1.79065       -1.19027       -1.44842
H         -3.55081       -1.20289       -1.22247
H         -2.75032        0.25651       -1.84893
C          3.08146        0.22349       -0.76521
H          4.11997       -0.01418       -0.49504
H          2.58345       -0.72440       -1.03015
H          3.10570        0.85681       -1.66436
Au         0.34214       -1.54964       -0.21262
C         -1.44135        2.21275        0.84112
H         -2.29291        2.28247        1.52253
H         -0.54405        2.45920        1.42682
