37
CAAC_terbutyl_au.log	Energy: -414418.5012962
C         -0.28505        1.94971       -0.04258
C         -1.75198        2.09005        0.37190
C         -2.43853        0.72972        0.13918
H         -1.80041        2.34550        1.43999
H         -2.26151        2.89301       -0.17688
N         -1.22866       -0.20426       -0.01155
C          0.65266        2.67779        0.91792
H          1.70426        2.58493        0.60529
H          0.40228        3.74912        0.92736
H          0.55918        2.29805        1.94622
C         -0.02074        2.41219       -1.48511
H         -0.18691        3.49792       -1.54675
H          1.01912        2.21122       -1.78383
H         -0.68642        1.92185       -2.20921
C         -3.26139        0.38903        1.37832
H         -3.85463       -0.52772        1.29410
H         -2.62485        0.32168        2.27211
H         -3.96937        1.21565        1.53995
C         -3.28685        0.75546       -1.13004
H         -3.88447       -0.14984       -1.27189
H         -3.98830        1.59816       -1.05198
H         -2.67222        0.91629       -2.02684
C         -0.11403        0.45443       -0.01486
C         -1.31508       -1.72538       -0.06931
C         -0.98742       -2.25088        1.32827
H         -1.73857       -1.93959        2.06696
H         -0.96661       -3.34961        1.30941
H          0.00004       -1.89811        1.66320
C         -2.69395       -2.22098       -0.50794
H         -2.90415       -1.97417       -1.55639
H         -2.67666       -3.31643       -0.43145
H         -3.51957       -1.87597        0.11974
C         -0.33722       -2.27813       -1.11193
H          0.71199       -2.26273       -0.78378
H         -0.59005       -3.33068       -1.29804
H         -0.41779       -1.73755       -2.06634
Au         1.74663       -0.24885        0.03110
