44
CAAC_mes_au.log	Energy: -534534.5049633
C         -2.41040        1.06847       -0.03707
C         -1.93105        2.50917       -0.32588
C         -0.42109        2.56518       -0.03363
H         -2.10670        2.74399       -1.38568
H         -2.48327        3.25006        0.26777
N         -0.07496        1.08600       -0.04603
C          1.28297        0.60240       -0.01160
C          1.88071        0.31647        1.23041
C          1.95030        0.37802       -1.22982
C          3.20760       -0.11785        1.22139
C          3.27481       -0.05868       -1.16997
C          3.93254       -0.28930        0.04006
H          3.68530       -0.34601        2.17813
H          3.80503       -0.23982       -2.10900
C          1.30273        0.53773       -2.57601
H          0.20813        0.59607       -2.52556
H          1.66486        1.44166       -3.08932
H          1.56005       -0.31663       -3.21824
C          5.36914       -0.71292        0.06996
H          5.59348       -1.32336        0.95558
H          5.64138       -1.28632       -0.82694
H          6.02754        0.17069        0.10594
C          1.16132        0.40950        2.54637
H          1.42473        1.33014        3.08885
H          0.06926        0.38512        2.44307
H          1.45152       -0.43294        3.18961
C         -3.36522        0.54788       -1.11086
H         -3.67908       -0.48556       -0.89940
H         -4.26757        1.17675       -1.13342
H         -2.90685        0.57438       -2.11074
C         -3.04569        0.91230        1.35275
H         -3.98273        1.48750        1.38461
H         -3.28688       -0.14051        1.56307
H         -2.39212        1.28243        2.15533
C          0.35595        3.30771       -1.10813
H          1.44098        3.23765       -0.94439
H          0.11810        2.94206       -2.11450
H          0.07732        4.37042       -1.06319
C         -0.09200        3.14880        1.33516
H          0.98526        3.08908        1.54323
H         -0.37359        4.21132        1.33566
H         -0.64065        2.65353        2.14611
C         -1.11052        0.31414       -0.04727
Au        -0.95141       -1.65326       -0.01886
