128
ipr_star_au.log	Energy: -1821765.4822363
N          0.34199       -0.98171        0.89659
C          0.03945        0.01839        0.04662
N         -0.12115        1.11712        0.82083
C          0.09515        0.80489        2.15409
H          0.02908        1.55405        2.93710
C          0.38290       -0.51911        2.20101
H          0.61650       -1.17191        3.03564
C         -0.37289        2.45371        0.35930
C          0.73651        3.28321        0.12891
C         -1.68631        2.91702        0.17288
C          0.50754        4.61946       -0.19306
C         -1.86519        4.26028       -0.16135
C         -0.78633        5.13434       -0.32166
H          1.36820        5.27278       -0.35545
H         -2.88388        4.63490       -0.28804
C          0.54358       -2.34806        0.51411
C         -0.57390       -3.18362        0.37538
C          1.85182       -2.81060        0.32074
C         -0.34766       -4.53031        0.09260
C          2.02740       -4.16507        0.03692
C          0.94404       -5.04280       -0.06288
H         -1.20687       -5.19528       -0.01821
H          3.04090       -4.53982       -0.12231
C         -2.87572        1.97315        0.22396
H         -2.58309        1.14580        0.89209
C          2.13138        2.69047        0.07772
H          2.15315        1.84043        0.77776
C         -1.97332       -2.62008        0.55421
H         -1.98720       -1.65018        0.02550
C          3.02495       -1.85224        0.43689
H          2.71057       -0.91414       -0.05283
C          3.32030       -1.50374        1.88437
C          3.79834       -0.22937        2.20772
C          3.12792       -2.42665        2.91703
C          4.05544        0.12637        3.52903
H          3.97370        0.49877        1.41257
C          3.38447       -2.07495        4.24257
H          2.76128       -3.42922        2.68302
C          3.84210       -0.79553        4.55400
H          4.42699        1.12859        3.75606
H          3.22714       -2.80787        5.03749
H          4.04073       -0.52032        5.59224
C          4.24233       -2.33151       -0.33555
C          4.14015       -2.47506       -1.72623
C          5.45630       -2.63557        0.28261
C          5.22389       -2.91505       -2.47885
H          3.19257       -2.24193       -2.22001
C          6.54631       -3.07472       -0.47178
H          5.55541       -2.52659        1.36448
C          6.43470       -3.21606       -1.85180
H          5.12610       -3.02390       -3.56183
H          7.48941       -3.30746        0.02800
H          7.28780       -3.56076       -2.44046
C         -3.03879       -3.45816       -0.13064
C         -2.96686       -3.62906       -1.52041
C         -4.09500       -4.05081        0.56282
C         -3.92513       -4.37445       -2.19905
H         -2.13790       -3.17569       -2.07194
C         -5.06141       -4.79551       -0.11700
H         -4.16710       -3.92894        1.64551
C         -4.98130       -4.95938       -1.49692
H         -3.84938       -4.50350       -3.28168
H         -5.88147       -5.25254        0.44158
H         -5.73600       -5.54528       -2.02632
C         -2.27195       -2.30944        2.00886
C         -3.13881       -1.25819        2.32578
C         -1.70582       -3.04571        3.05328
C         -3.41861       -0.93197        3.64997
H         -3.61048       -0.69312        1.51856
C         -1.98293       -2.72303        4.38202
H         -1.03186       -3.87505        2.82481
C         -2.83359       -1.66157        4.68521
H         -4.10065       -0.10772        3.87234
H         -1.53089       -3.30800        5.18654
H         -3.04828       -1.40906        5.72599
C         -3.13078        1.29797       -1.12059
C         -4.03047        0.23544       -1.20374
C         -2.35427        1.59682       -2.26517
C         -4.08637       -0.59174       -2.33181
H         -4.68016        0.01806       -0.35199
C         -2.36975        0.74239       -3.39685
H         -1.76957        2.51960       -2.28828
C         -3.23537       -0.37335       -3.40789
H         -4.77825       -1.43546       -2.34578
H         -1.83354        1.03176       -4.30500
H         -3.25872       -1.03430       -4.27668
C         -4.10720        2.60181        0.84291
C         -4.19139        2.69288        2.23688
C         -5.14486        3.12571        0.06750
C         -5.28882        3.29647        2.84418
H         -3.38293        2.28577        2.85129
C         -6.24483        3.73215        0.67439
H         -5.09950        3.05251       -1.02223
C         -6.31966        3.81894        2.06259
H         -5.34256        3.35843        3.93357
H         -7.04985        4.13641        0.05648
H         -7.18290        4.29056        2.53717
C          3.20040        3.65175        0.55970
C          3.41753        3.78725        1.93564
C          3.95511        4.42963       -0.32246
C          4.36492        4.68410        2.42201
H          2.83459        3.17850        2.63353
C          4.90283        5.33057        0.16300
H          3.80884        4.32097       -1.40000
C          5.11018        5.46053        1.53453
H          4.52572        4.77658        3.49872
H          5.48746        5.93107       -0.53776
H          5.85637        6.16265        1.91294
C          2.41806        2.10612       -1.30172
C          3.55561        1.30872       -1.47797
C          1.58500        2.32181       -2.40518
C          3.84158        0.72451       -2.70867
H          4.24406        1.15615       -0.64308
C          1.86567        1.73306       -3.64170
H          0.71710        2.97638       -2.30760
C          2.98929        0.92457       -3.79516
H          4.73576        0.10789       -2.81585
H          1.21043        1.92862       -4.49460
H          3.21325        0.46852       -4.76206
C         -1.00786        6.58696       -0.61534
H         -1.97799        6.76026       -1.10109
H         -0.99929        7.17103        0.31969
H         -0.21576        6.99439       -1.25927
C          1.16357       -6.50327       -0.32183
H          1.30410       -7.04816        0.62640
H          0.30356       -6.95612       -0.83452
H          2.06235       -6.67336       -0.93107
Au        -0.61271        0.07408       -1.85667
