64
l_ad_au.log	Energy: -810961.6015069
C          0.18719        3.05016       -0.00017
C         -1.98105        1.92399       -0.00009
C         -2.53130        3.17452       -0.00015
C         -1.78348        4.38539       -0.00023
C         -0.42707        4.32508       -0.00024
C          1.51085        2.68940       -0.00016
H         -3.61596        3.24549       -0.00014
H         -2.30718        5.34233       -0.00028
H          0.20771        5.21185       -0.00029
H          2.38508        3.32746       -0.00021
N         -0.56177        1.85361       -0.00010
C          0.32214        0.79882       -0.00005
N          1.56379        1.32818       -0.00009
C          2.83894        0.54570       -0.00006
C          2.92004       -0.32470       -1.26196
C          4.03671        1.50527       -0.00012
C          2.92006       -0.32456        1.26193
H          2.85909        0.31975       -2.15455
H          2.05636       -1.01153       -1.30223
C          4.22164       -1.12977       -1.25229
H          4.00231        2.15206        0.89177
H          4.00230        2.15197       -0.89208
C          5.34615        0.70783       -0.00009
H          2.05638       -1.01139        1.30229
H          2.85913        0.31998        2.15445
C          4.22167       -1.12964        1.25232
H          4.25077       -1.76065       -2.15451
C          5.41211       -0.16895       -1.25128
C          4.26509       -2.01002        0.00006
H          6.18306        1.42328       -0.00013
C          5.41213       -0.16882        1.25119
H          4.25081       -1.76043        2.15461
H          5.39928        0.45543       -2.15986
H          6.35714       -0.73464       -1.26675
H          3.41587       -2.71567        0.00011
H          5.18169       -2.62078        0.00009
H          6.35716       -0.73450        1.26671
H          5.39931        0.45566        2.15971
C         -2.85769        0.68383       -0.00000
C         -2.64381       -0.12136        1.30690
C         -4.37094        1.01356        0.00000
C         -2.64385       -0.12151       -1.30682
H         -3.00832        0.49741        2.14303
H         -1.58132       -0.30474        1.53282
C         -3.40920       -1.44043        1.26065
H         -4.62929        1.61240       -0.88843
H         -4.62927        1.61250        0.88837
C         -5.21114       -0.27636        0.00009
H         -1.58137       -0.30491       -1.53275
H         -3.00838        0.49717       -2.14301
C         -3.40924       -1.44056       -1.26040
H         -3.16736       -2.03418        2.15647
C         -4.90644       -1.12074        1.23758
C         -3.02827       -2.22044        0.00016
H         -6.27455        0.00966        0.00009
C         -4.90648       -1.12087       -1.23733
H         -3.16743       -2.03442       -2.15617
H         -5.17834       -0.58248        2.15968
H         -5.50511       -2.04557        1.21913
H         -1.91147       -2.43389        0.00015
H         -3.48709       -3.22179        0.00022
H         -5.50515       -2.04571       -1.21875
H         -5.17841       -0.58272       -2.15948
Au        -0.09532       -1.17818        0.00006
