70
per_ad_au.log	Energy: -907189.7270724
C          1.61393        2.63594       -1.78763
C          0.92620        2.00045       -0.77517
C          0.00430        2.73373       -0.00227
C          0.00651        4.15005       -0.00157
C          0.80247        4.79335       -0.98436
C          1.52553        4.04488       -1.88909
H          2.25119        2.08300       -2.47666
C         -0.92009        2.00246        0.76964
C         -0.78752        4.79486        0.98179
H          0.82188        5.88433       -1.02899
H          2.08908        4.54694       -2.67804
C         -1.51287        4.04770        1.88574
C         -1.60579        2.63913        1.78279
H         -0.80361        5.88585        1.02747
H         -2.07484        4.55067        2.67523
H         -2.24463        2.08766        2.47151
C          0.00019       -0.02527       -0.00358
N         -1.10232        0.64786        0.34993
N          1.10454        0.64488       -0.35724
C         -2.50172        0.09163        0.10952
C         -3.55654        1.21281        0.09527
C         -2.55102       -0.54846       -1.29293
C         -2.87704       -0.92117        1.19445
H         -3.28910        1.96892       -0.66043
H         -3.60512        1.72859        1.05936
C         -4.94840        0.62962       -0.18678
H         -1.79432       -1.34271       -1.39271
H         -2.30415        0.22032       -2.04431
C         -3.92851       -1.15604       -1.56219
H         -2.86725       -0.42660        2.17968
H         -2.12585       -1.73184        1.24052
C         -4.25934       -1.51090        0.89659
H         -5.66967        1.46138       -0.16414
C         -4.97799       -0.04811       -1.55333
C         -5.29847       -0.38734        0.90202
H         -3.90405       -1.64588       -2.54841
C         -4.24338       -2.18908       -0.47620
H         -4.50321       -2.25007        1.67577
H         -4.76849        0.68245       -2.35171
H         -5.97866       -0.46348       -1.75260
H         -5.32585        0.10088        1.89037
H         -6.30404       -0.80053        0.72423
H         -5.21923       -2.65954       -0.67493
H         -3.49408       -3.00039       -0.49245
C          2.50248        0.08686       -0.11013
C          3.56053        1.20494       -0.10375
C          2.54679       -0.54178        1.29770
C          2.87772       -0.93536       -1.18622
H          3.29407        1.96897        0.64421
H          3.61255        1.71116       -1.07285
C          4.95014        0.62039        0.18674
H          1.78823       -1.33321        1.40204
H          2.30039        0.23391        2.04212
C          3.92213       -1.15111        1.57471
H          2.87154       -0.44821       -2.17515
H          2.12488       -1.74475       -1.22821
C          4.25754       -1.52680       -0.88039
H          5.67364        1.45005        0.15896
C          4.97461       -0.04603        1.55895
C          5.30015       -0.40655       -0.89258
H          3.89437       -1.63281        2.56483
C          4.23637       -2.19377        0.49780
H          4.50086       -2.27302       -1.65298
H          4.76518        0.69172        2.35072
H          5.97375       -0.46226        1.76397
H          5.33158        0.07331       -1.88488
H          6.30397       -0.82131       -0.70864
H          5.21037       -2.66548        0.70252
H          3.48463       -3.00270        0.51895
Au        -0.00335       -2.05419       -0.00413
