60
per_mes_au.log	Energy: -856427.4759872
C          2.43341        2.81708       -0.00137
C          1.23167        2.14325       -0.00072
C         -0.00001        2.84348       -0.00006
C         -0.00002        4.26614        0.00004
C          1.24949        4.93913       -0.00057
C          2.42685        4.22912       -0.00128
H          3.37448        2.26656       -0.00197
C         -1.23167        2.14323        0.00045
C         -1.24954        4.93911        0.00071
H          1.26083        6.03084       -0.00050
H          3.38193        4.75815       -0.00179
C         -2.42688        4.22908        0.00123
C         -2.43342        2.81704        0.00110
H         -1.26090        6.03082        0.00080
H         -3.38197        4.75809        0.00175
H         -3.37449        2.26651        0.00147
C          0.00002        0.07503       -0.00025
N         -1.16202        0.72409        0.00020
N          1.16204        0.72411       -0.00066
C         -2.38812       -0.03401        0.00041
C         -2.96897       -0.36605       -1.23140
C         -2.96820       -0.36664        1.23229
C         -4.16554       -1.08397       -1.20199
C         -4.16488       -1.08465        1.20320
C         -4.77698       -1.45517        0.00075
H         -4.63981       -1.35307       -2.14958
H         -4.63859       -1.35425        2.15090
C          2.38815       -0.03398       -0.00089
C          2.96916       -0.36596        1.23137
C          2.96782       -0.36705       -1.23232
C          4.16517       -1.08391        1.20213
C          4.16467       -1.08573       -1.20307
C          4.77665       -1.45569       -0.00098
H          4.63932       -1.35307        2.14983
H          4.63808       -1.35608       -2.15063
C          6.05033       -2.24647        0.00307
H          5.83969       -3.31975        0.14137
H          6.59800       -2.13756       -0.94286
H          6.71254       -1.93781        0.82441
C         -6.04963       -2.24757        0.00043
H         -6.66369       -2.02493       -0.88322
H         -5.83250       -3.32844       -0.01599
H         -6.64985       -2.04857        0.89900
C          2.32374        0.03685       -2.52478
H          1.33891       -0.44242       -2.65217
H          2.16179        1.12527       -2.57276
H          2.94693       -0.25098       -3.38078
C          2.32518        0.03970        2.52336
H          2.16529        1.12846        2.57074
H          1.33935       -0.43757        2.65043
H          2.94741       -0.24889        3.37980
C         -2.32532        0.03920       -2.52367
H         -2.16475        1.12785       -2.57116
H         -1.33987       -0.43874       -2.65120
H         -2.94812       -0.24903       -3.37982
C         -2.32388        0.03788        2.52445
H         -1.33862       -0.44060        2.65145
H         -2.16276        1.12643        2.57226
H         -2.94650       -0.25035        3.38074
Au         0.00003       -1.92019       -0.00034
