65
triazol_dipp_au.log	Energy: -821717.7948416
N          1.06331       -0.08914       -1.09187
C         -0.00141       -0.01489       -0.29246
N         -1.06802       -0.08159       -1.11426
C          2.43131       -0.08028       -0.66045
C          3.02158       -1.31312       -0.33679
C          4.34429       -1.27393        0.10949
H          4.85232       -2.20366        0.37064
C          5.02539       -0.06475        0.22272
C          4.40505        1.13502       -0.10939
H          4.95761        2.07206       -0.01541
C          3.08408        1.15672       -0.56547
C          2.39468        2.46382       -0.90200
H          1.44523        2.22622       -1.40802
C          2.28280       -2.62326       -0.52298
H          1.20138       -2.40858       -0.48100
C         -2.44591       -0.04945       -0.70749
C         -3.05174        1.20355       -0.52368
C         -4.38431        1.20113       -0.10150
H         -4.89972        2.15112        0.05494
C         -5.06314        0.00758        0.11846
C         -4.42921       -1.21581       -0.07879
H         -4.97998       -2.14145        0.09761
C         -3.09858       -1.27670       -0.49919
C         -2.39002       -2.60796       -0.66365
H         -1.48619       -2.44126       -1.27218
C         -2.31536        2.51060       -0.74320
H         -1.32120        2.28050       -1.15905
C         -0.58033       -0.19297       -2.38974
H         -1.21623       -0.26357       -3.27072
C          2.58123       -3.19855       -1.91062
H          2.32040       -2.48538       -2.70614
H          3.65177       -3.43567       -2.00945
H          2.01264       -4.12650       -2.07581
C          2.57166       -3.63588        0.58058
H          3.61167       -3.99396        0.54927
H          2.38994       -3.21296        1.58053
H          1.92627       -4.51870        0.46060
C          2.05652        3.23891        0.37271
H          2.96813        3.51460        0.92485
H          1.51319        4.16590        0.13415
H          1.42535        2.64128        1.05164
C          3.21313        3.30982       -1.87537
H          2.65129        4.21108       -2.16254
H          4.16080        3.64491       -1.42732
H          3.45076        2.74805       -2.79027
C         -1.92860       -3.13833        0.69632
H         -1.37229       -4.08068        0.57900
H         -1.27029       -2.41849        1.20980
H         -2.78879       -3.33125        1.35583
C         -3.23765       -3.63971       -1.40396
H         -4.11812       -3.94365       -0.81810
H         -3.59200       -3.25424       -2.37123
H         -2.64741       -4.54819       -1.59394
C         -2.09189        3.23826        0.58313
H         -1.54304        2.60507        1.30023
H         -1.50873        4.15853        0.42891
H         -3.04678        3.51880        1.05327
C         -3.03023        3.40089       -1.75923
H         -3.17955        2.88061       -2.71682
H         -4.01814        3.72021       -1.39433
H         -2.44166        4.31008       -1.95241
H         -6.10468        0.02986        0.44652
H          6.05973       -0.05913        0.57368
N          0.72007       -0.20208       -2.39165
Au        -0.00318        0.16903        1.66852
