57
triazol_ad_au.log	Energy: -724779.3613759
N          1.02103        1.19977       -0.00000
C         -0.01891        0.32750        0.00001
N         -1.12207        1.08263       -0.00003
C         -2.57269        0.74384       -0.00002
C         -3.19901        1.36602        1.25693
C         -3.19894        1.36542       -1.25730
C         -2.83077       -0.76066        0.00031
H         -2.98794        2.44543        1.26838
H         -2.73185        0.92451        2.15363
C         -4.70832        1.11000        1.25106
H         -2.73171        0.92353       -2.15377
H         -2.98790        2.44483       -1.26921
C         -4.70825        1.10935       -1.25137
H         -2.38354       -1.22551        0.89693
H         -2.38374       -1.22580       -0.89626
C         -4.34520       -1.01742        0.00041
H         -5.14401        1.56654        2.15337
C         -5.32609        1.74049       -0.00034
C         -4.96796       -0.39742        1.25284
H         -5.14390        1.56541       -2.15394
C         -4.96790       -0.39808       -1.25239
H         -4.50803       -2.10667        0.00069
H         -5.15846        2.82998       -0.00061
H         -6.41678        1.58607       -0.00034
H         -4.54460       -0.85857        2.16097
H         -6.05089       -0.59786        1.27017
H         -6.05082       -0.59849       -1.26967
H         -4.54449       -0.85970       -2.16025
C          2.47688        0.87866        0.00002
C          2.83563        0.08062       -1.26052
C          3.28309        2.18374        0.00020
C          2.83557        0.08031        1.26037
H          2.56351        0.66473       -2.15520
H          2.24930       -0.85455       -1.29472
C          4.33155       -0.24530       -1.25224
H          3.03420        2.78194        0.89257
H          3.03427        2.78215       -0.89204
C          4.78239        1.86422        0.00020
H          2.24925       -0.85488        1.29432
H          2.56340        0.66419        2.15519
C          4.33149       -0.24561        1.25209
H          4.56829       -0.82974       -2.15493
C          5.13298        1.05825       -1.25182
C          4.66711       -1.06059       -0.00017
H          5.33636        2.81554        0.00033
C          5.13292        1.05794        1.25202
H          4.56818       -0.83027        2.15464
H          4.91266        1.64275       -2.16029
H          6.21216        0.83921       -1.26889
H          4.10521       -2.01085       -0.00030
H          5.73544       -1.32795       -0.00018
H          6.21211        0.83889        1.26908
H          4.91257        1.64221        2.16063
C          0.47221        2.45062       -0.00007
H          1.04142        3.37517       -0.00009
N         -0.82370        2.39394       -0.00007
Au         0.13059       -1.65365       -0.00001
