35
triazol_phme_au.log	Energy: -575469.3467272
N         -1.05258        1.38803        0.21360
C          0.01447        0.56265        0.10948
N          1.08276        1.36203        0.21949
C         -2.43152        1.01106        0.16416
C         -2.93776        0.12240        1.11112
C         -4.27869       -0.24167        1.04711
H         -4.67771       -0.93685        1.78959
C         -5.12902        0.27846        0.06164
C         -4.58951        1.17532       -0.87109
H         -5.23035        1.58794       -1.65390
C         -3.24909        1.54331       -0.83024
C         -6.58088       -0.08743        0.02415
H         -6.76296       -1.07163        0.47677
H         -6.96758       -0.09954       -1.00436
H         -7.17589        0.64966        0.58836
C          2.45802        0.98295        0.17676
C          2.90854       -0.08932        0.94306
C          4.24929       -0.45629        0.86940
H          4.60645       -1.29343        1.47367
C          5.15103        0.24286        0.05806
C          4.66691        1.33170       -0.68318
H          5.35285        1.89581       -1.31980
C          3.33139        1.70818       -0.63112
C          6.59967       -0.13350        0.00194
H          6.96599       -0.15536       -1.03498
H          6.78270       -1.11710        0.45434
H          7.21158        0.60457        0.54541
C         -0.56090        2.65887        0.35395
H         -1.19194        3.53931        0.46475
N          0.73763        2.65779        0.35778
H          2.96217        2.55659       -1.20947
H          2.22861       -0.61362        1.61846
H         -2.29282       -0.26494        1.90321
H         -2.83754        2.22627       -1.57690
Au        -0.02633       -1.38000       -0.23395
