92
5s_dibutyl_dipp_au.log	Energy: -1009406.7321705
N         -1.02157        0.60296        0.05775
C          0.04048       -0.19420        0.04449
N          1.18392        0.46756        0.03623
C         -0.61086        2.03869        0.13989
H         -0.95699        2.54073       -0.77519
C          0.95332        1.94650        0.12971
H          1.31301        2.25263        1.12124
C         -2.35722        0.12949       -0.21270
C         -3.06578       -0.63003        0.74845
C         -4.38095       -0.99804        0.44941
H         -4.94782       -1.57774        1.18109
C         -4.99088       -0.62880       -0.74161
C         -4.26558        0.08083       -1.68778
H         -4.73310        0.34005       -2.63997
C         -2.93714        0.44921       -1.45952
C         -2.17972        1.12833       -2.58472
H         -1.12498        1.18805       -2.28441
C         -2.50978       -1.07076        2.09164
H         -1.47718       -0.70291        2.17340
C          2.48391       -0.14803        0.00203
C          2.96924       -0.73115       -1.20006
C          4.35166       -0.96303       -1.27382
H          4.76042       -1.35650       -2.20810
C          5.20811       -0.73166       -0.21047
C          4.66990       -0.35148        1.00919
H          5.31636       -0.27416        1.88721
C          3.30894       -0.07004        1.15413
C          2.87052        0.20336        2.59238
H          3.61903       -0.36062        3.17252
C          2.23629       -1.32009       -2.42197
H          2.90102       -1.07129       -3.26601
H          6.28090       -0.90428       -0.31676
H         -6.02743       -0.91005       -0.93881
C         -2.45450       -2.59557        2.20704
H         -3.45713       -3.04804        2.17819
H         -1.89000       -3.05450        1.36712
H         -1.97006       -2.90159        3.14619
C         -3.31201       -0.49333        3.26039
H         -3.39886        0.59978        3.19757
H         -4.33192       -0.90534        3.28651
H         -2.82989       -0.74190        4.21798
C         -2.68131        2.54687       -2.85778
H         -2.08734        3.02126       -3.65401
H         -3.73114        2.53688       -3.18859
H         -2.62884        3.18907       -1.96634
C         -2.22209        0.29058       -3.86425
H         -3.23037        0.27304       -4.30429
H         -1.54365        0.71430       -4.62026
H         -1.92144       -0.74980       -3.67716
C          3.04024        1.64919        3.06379
H          2.91875        1.70274        4.15608
H          4.04276        2.02861        2.81798
H          2.31023        2.34384        2.62615
C          1.53298       -0.41030        2.98933
H          0.67301        0.10759        2.55412
H          1.48261       -1.46829        2.68759
H          1.41303       -0.36753        4.08233
C          0.83671       -0.91596       -2.87382
H          0.04350       -1.38821       -2.27614
H          0.65812        0.15976       -2.87352
H          0.69726       -1.26948       -3.90590
C          2.26690       -2.85070       -2.28891
H          3.27486       -3.24328       -2.09985
H          1.63161       -3.17229       -1.43783
H          1.86802       -3.32770       -3.19672
C          1.75539        2.81048       -0.90561
C          1.26877        4.26234       -0.90177
H          1.84501        4.81882       -1.65476
H          0.20886        4.35858       -1.17419
H          1.43349        4.76018        0.06094
C          3.24176        2.84596       -0.51944
H          3.37999        3.17271        0.52187
H          3.74323        1.87882       -0.64470
H          3.76344        3.56988       -1.16300
C          1.63770        2.30515       -2.33835
H          2.13989        3.01267       -3.01395
H          2.12933        1.33552       -2.46669
H          0.59125        2.23273       -2.67138
C         -1.26984        2.78915        1.34692
C         -0.79954        4.24275        1.42462
H         -1.04004        4.81424        0.51845
H         -1.31731        4.72793        2.26485
H          0.27676        4.32759        1.62262
C         -2.79282        2.83683        1.15965
H         -3.06536        3.26616        0.18401
H         -3.27258        1.85516        1.23546
H         -3.23231        3.48103        1.93541
C         -0.93497        2.14210        2.68733
H         -1.49413        2.64716        3.48850
H         -1.20409        1.08198        2.71942
H          0.13095        2.23529        2.93649
Au        -0.05717       -2.18786        0.11990
