60
5s_dibutyl_terbutyl_au.log	Energy: -621467.5420722
N         -0.41760       -1.09893       -0.15053
C          0.31450        0.00005        0.00002
N         -0.41772        1.09897        0.15057
C         -1.84064       -0.75745        0.14273
H         -2.47421       -1.27861       -0.58096
C         -1.84072        0.75732       -0.14273
H         -2.47437        1.27841        0.58093
C          0.09119        2.40045        0.71483
C          0.94051        2.15671        1.97012
H          1.89590        1.65577        1.75168
H          1.18543        3.12678        2.42424
H          0.40287        1.55707        2.71548
C         -1.08411        3.26956        1.15892
H         -0.68131        4.20935        1.55956
H         -1.76277        3.52791        0.34218
H         -1.65953        2.79415        1.96670
C          0.93084        3.12970       -0.33414
H          0.34788        3.39121       -1.22610
H          1.33567        4.05839        0.09222
H          1.78476        2.51343       -0.65919
C          0.09146       -2.40035       -0.71479
C          0.94083       -2.15644       -1.97004
H          1.89622       -1.65555       -1.75150
H          1.18572       -3.12642       -2.42436
H          0.40321       -1.55664       -2.71529
C          0.93110       -3.12960        0.33418
H          0.34810       -3.39125        1.22608
H          1.33605       -4.05821       -0.09223
H          1.78494       -2.51329        0.65936
C         -1.08373       -3.26957       -1.15898
H         -1.65916       -2.79418       -1.96678
H         -0.68081       -4.20930       -1.55965
H         -1.76241       -3.52802       -0.34229
C         -2.35633        1.12001       -1.57309
C         -2.41983        2.62933       -1.81306
H         -2.81709        2.81808       -2.82101
H         -3.09526        3.12999       -1.10349
H         -1.43493        3.10892       -1.76375
C         -1.49320        0.49101       -2.66462
H         -1.52703       -0.60677       -2.63581
H         -1.85949        0.79867       -3.65502
H         -0.44230        0.81136       -2.58955
C         -3.79761        0.60369       -1.69617
H         -4.44207        1.00878       -0.90113
H         -4.21951        0.92798       -2.65839
H         -3.87376       -0.49276       -1.67116
C         -2.35626       -1.12021        1.57306
C         -3.79759       -0.60401        1.69611
H         -4.21949       -0.92834        2.65832
H         -3.87383        0.49243        1.67112
H         -4.44200       -1.00914        0.90106
C         -2.41965       -2.62954        1.81299
H         -2.81695       -2.81835        2.82091
H         -3.09501       -3.13023        1.10337
H         -1.43472       -3.10906        1.76371
C         -1.49321       -0.49116        2.66461
H         -1.52719        0.60662        2.63584
H         -1.85947       -0.79890        3.65501
H         -0.44227       -0.81137        2.58952
Au         2.31610        0.00005        0.00001
