36
5s_dih_dIterbutyl_au.log	Energy: -424477.2843495
N         -1.10498       -1.30208        0.06733
C          0.00008       -0.56476        0.00018
N          1.10524       -1.30185       -0.06680
C         -0.74961       -2.71432       -0.12359
H         -1.00032       -3.02375       -1.15253
H         -1.28800       -3.36467        0.57402
C          0.75012       -2.71418        0.12387
H          1.00083       -3.02373        1.15277
H          1.28869       -3.36432       -0.57381
C          2.52194       -0.82349       -0.00401
C          2.80133        0.13158       -1.16346
H          2.21356        1.06129       -1.09750
H          3.86192        0.41916       -1.15444
H          2.57963       -0.34564       -2.12906
C          3.45222       -2.02784       -0.15170
H          4.48972       -1.66985       -0.11531
H          3.33316       -2.75601        0.66264
H          3.31602       -2.53799       -1.11622
C          2.77211       -0.15957        1.35045
H          2.56100       -0.85408        2.17747
H          3.82290        0.15298        1.42931
H          2.14548        0.73586        1.48705
C         -2.52169       -0.82391        0.00392
C         -2.80114        0.13286        1.16197
H         -2.21471        1.06318        1.09358
H         -3.86210        0.41910        1.15345
H         -2.57791       -0.34229        2.12822
C         -2.77181       -0.16199       -1.35152
H         -2.56099       -0.85780       -2.17753
H         -3.82251        0.15078       -1.43081
H         -2.14486        0.73301       -1.48945
C         -3.45187       -2.02810        0.15351
H         -3.31538       -2.53683        1.11875
H         -4.48941       -1.67025        0.11681
H         -3.33293       -2.75744       -0.65979
Au        -0.00020        1.43189        0.00001
