84
5s_dibutyl_ad_au.log	Energy: -912480.4829621
N          1.09595        0.65588       -0.16914
C          0.00000       -0.07660       -0.00003
N         -1.09590        0.65599        0.16900
C          0.68331        2.07780       -0.35708
H          1.39296        2.71426        0.17945
C         -0.68317        2.07786        0.35700
H         -1.39275        2.71439       -0.17954
C         -2.49765        0.14636        0.00859
C         -2.89405       -0.71656        1.21651
C         -3.47951        1.31928       -0.13509
C         -2.64613       -0.69686       -1.27640
H         -2.78989       -0.13826        2.14615
H         -2.19646       -1.57025        1.30087
C         -4.32815       -1.22690        1.06365
H         -3.22090        1.91128       -1.02869
H         -3.41738        1.98501        0.73073
C         -4.91742        0.80436       -0.26637
H         -1.95399       -1.55612       -1.25796
H         -2.37016       -0.09071       -2.15156
C         -4.07622       -1.22469       -1.42044
H         -4.58396       -1.83410        1.94629
C         -5.27855       -0.03087        0.96384
C         -4.43250       -2.07907       -0.20248
H         -5.58747        1.67579       -0.33334
C         -5.04529       -0.04816       -1.52703
H         -4.12791       -1.83641       -2.33512
H         -5.21445        0.58350        1.87741
H         -6.32060       -0.38030        0.88901
H         -3.75568       -2.94857       -0.13295
H         -5.45258       -2.48133       -0.30773
H         -6.07855       -0.41340       -1.63947
H         -4.81929        0.55408       -2.42253
C          2.49768        0.14622       -0.00858
C          2.89424       -0.71658       -1.21654
C          3.47947        1.31917        0.13527
C          2.64600       -0.69716        1.27632
H          2.79021       -0.13819       -2.14614
H          2.19665       -1.57025       -1.30108
C          4.32833       -1.22692       -1.06354
H          3.22077        1.91110        1.02889
H          3.41738        1.98494       -0.73052
C          4.91739        0.80429        0.26666
H          1.95399       -1.55654        1.25755
H          2.36978       -0.09121        2.15153
C          4.07611       -1.22487        1.42052
H          4.58425       -1.83405       -1.94620
C          5.27867       -0.03086       -0.96356
C          4.43257       -2.07916        0.20254
H          5.58741        1.67572        0.33377
C          5.04511       -0.04830        1.52729
H          4.12773       -1.83665        2.33516
H          5.21466        0.58356       -1.87709
H          6.32073       -0.38027       -0.88863
H          3.75582       -2.94870        0.13289
H          5.45268       -2.48136        0.30787
H          6.07838       -0.41351        1.63986
H          4.81897        0.55389        2.42280
C          0.60845        2.58827       -1.83328
C          0.08620        4.03237       -1.80086
H          0.10907        4.45132       -2.81728
H         -0.95176        4.11454       -1.44810
H          0.71413        4.67549       -1.16543
C          1.97626        2.64340       -2.51615
H          2.67006        3.31876       -1.99394
H          2.44525        1.65611       -2.60742
H          1.85321        3.03569       -3.53625
C         -0.32168        1.72801       -2.68582
H         -1.36073        1.76860       -2.33183
H         -0.31938        2.09079       -3.72423
H         -0.00080        0.67484       -2.70466
C         -0.60829        2.58831        1.83320
C         -0.08579        4.03232        1.80082
H          0.95221        4.11431        1.44813
H         -0.71357        4.67555        1.16534
H         -0.10866        4.45127        2.81724
C          0.32164        1.72788        2.68578
H          1.36071        1.76834        2.33187
H          0.31932        2.09063        3.72421
H          0.00060        0.67476        2.70456
C         -1.97612        2.64368        2.51603
H         -2.66980        3.31914        1.99378
H         -2.44527        1.65647        2.60733
H         -1.85302        3.03598        3.53612
Au        -0.00010       -2.08151       -0.00006
