38
5s_dih_dIphme_au.log	Energy: -566186.5944184
N          1.09732       -1.43139       -0.04487
C         -0.00001       -0.68641       -0.00001
N         -1.09733       -1.43139        0.04485
C          0.75860       -2.86094       -0.11467
H          1.31355       -3.41197        0.65676
H          1.03972       -3.26700       -1.09862
C         -0.75861       -2.86094        0.11463
H         -1.31356       -3.41196       -0.65680
H         -1.03973       -3.26701        1.09858
C          2.43760       -0.95694       -0.01067
C          2.87273       -0.16697        1.05453
C          4.18221        0.30544        1.07128
H          4.51453        0.92569        1.90731
C          5.08471       -0.01689        0.05070
C          4.62821       -0.82713       -0.99896
H          5.31108       -1.08944       -1.81084
C          3.31974       -1.29458       -1.03802
C          6.50506        0.45858        0.09047
H          6.86517        0.73270       -0.91150
H          7.16826       -0.33720        0.46753
H          6.62371        1.32790        0.75119
C         -2.43761       -0.95694        0.01066
C         -2.87274       -0.16691       -1.05450
C         -4.18221        0.30550       -1.07123
H         -4.51452        0.92580       -1.90724
C         -5.08473       -0.01689       -0.05068
C         -4.62823       -0.82718        0.99894
H         -5.31111       -1.08954        1.81080
C         -3.31976       -1.29463        1.03798
C         -6.50507        0.45861       -0.09044
H         -7.16825       -0.33704       -0.46781
H         -6.62364        1.32813       -0.75091
H         -6.86528        0.73244        0.91157
Au         0.00001        1.29624        0.00000
H         -2.19215        0.06077       -1.87848
H         -2.98238       -1.90747        1.87669
H          2.19216        0.06066        1.87853
H          2.98235       -1.90737       -1.87675
