74
5s_dibutyl_mes_au.log	Energy: -861688.3459414
N          1.10579       -0.62671        0.04262
C          0.00006        0.10017        0.00001
N         -1.10583       -0.62645       -0.04270
C          0.77854       -2.08264        0.07647
H          1.23025       -2.54337       -0.81485
C         -0.77893       -2.08245       -0.07672
H         -1.23078       -2.54318        0.81454
C          2.41113       -0.03134       -0.07508
C          2.94804        0.72177        0.98825
C          4.20839        1.30004        0.81242
H          4.62818        1.88654        1.63435
C          4.94954        1.14766       -0.35941
C          4.37428        0.41354       -1.39842
H          4.91705        0.30502       -2.34136
C          3.11170       -0.16918       -1.28785
C          2.53614       -0.89656       -2.46463
H          1.47108       -0.66877       -2.60408
H          2.63041       -1.99012       -2.35964
H          3.06493       -0.61833       -3.38533
C          6.31916        1.73988       -0.49729
H          6.46624        2.58645        0.18728
H          6.50730        2.08634       -1.52346
H          7.08981        0.98757       -0.26172
C          2.28037        0.90089        2.32260
H          1.18567        0.84281        2.28042
H          2.54768        1.87536        2.75408
H          2.62266        0.13262        3.03492
C         -2.41108       -0.03094        0.07525
C         -2.94800        0.72238       -0.98793
C         -4.20837        1.30057       -0.81202
H         -4.62815        1.88722       -1.63386
C         -4.94952        1.14796        0.35978
C         -4.37422        0.41373        1.39868
H         -4.91697        0.30508        2.34161
C         -3.11164       -0.16898        1.28800
C         -2.53609       -0.89657        2.46466
H         -2.63039       -1.99010        2.35949
H         -3.06487       -0.61847        3.38541
H         -1.47103       -0.66883        2.60414
C         -6.31924        1.73997        0.49764
H         -6.50809        2.08497        1.52416
H         -7.08969        0.98795        0.26048
H         -6.46592        2.58747       -0.18587
C         -2.28024        0.90198       -2.32218
H         -2.54612        1.87735       -2.75252
H         -2.62382        0.13505       -3.03532
H         -1.18565        0.84223       -2.28019
C          1.36304       -2.82436        1.31551
C          2.89294       -2.70443        1.31967
H          3.32156       -2.97054        0.34075
H          3.24830       -1.70015        1.57528
H          3.30976       -3.40040        2.06243
C          1.03717       -4.31714        1.23082
H         -0.04204       -4.51719        1.24419
H          1.46951       -4.78581        0.33475
H          1.46996       -4.82291        2.10633
C          0.78937       -2.29341        2.62768
H         -0.25963       -2.59052        2.76441
H          1.35111       -2.71191        3.47584
H          0.85161       -1.20127        2.69912
C         -1.36358       -2.82389       -1.31586
C         -1.03797       -4.31674       -1.23136
H         -1.47037       -4.78544       -0.33533
H         -1.47088       -4.82233       -2.10691
H          0.04120       -4.51699       -1.24478
C         -2.89346       -2.70367       -1.32001
H         -3.32215       -2.96986       -0.34114
H         -3.24860       -1.69927       -1.57546
H         -3.31040       -3.39942       -2.06291
C         -0.78987       -2.29290       -2.62798
H          0.25919       -2.58984       -2.76463
H         -1.35147       -2.71152       -3.47618
H         -0.85230       -1.20077       -2.69948
Au         0.00026        2.08744       -0.00003
