36
5u_dif_ptolu_au.log	Energy: -689748.5133476
N         -1.08494        1.17611        0.01562
N          1.08496        1.17610       -0.01560
C          0.00001        0.37550        0.00001
Au        -0.00003       -1.59777        0.00000
C         -2.45066        0.74386       -0.00350
C         -2.92817        0.03444       -1.10350
C         -3.27825        1.04009        1.07712
C         -4.25078       -0.39747       -1.10602
C         -4.59935        0.60934        1.05089
C         -5.10977       -0.11627       -0.03547
H         -4.62775       -0.95493       -1.96672
H         -5.24954        0.83684        1.89897
C          2.45068        0.74384        0.00353
C          3.27828        1.04008       -1.07709
C          2.92818        0.03440        1.10351
C          4.59937        0.60934       -1.05086
C          4.25080       -0.39750        1.10603
C          5.10979       -0.11629        0.03549
H          5.24957        0.83687       -1.89893
H          4.62778       -0.95496        1.96672
C         -6.54376       -0.54783       -0.06115
H         -6.70182       -1.39223       -0.74547
H         -6.89458       -0.83896        0.93899
H         -7.18633        0.28015       -0.40327
C          6.54378       -0.54789        0.06104
H          6.70226       -1.39106        0.74675
H          6.89388       -0.84081       -0.93884
H          7.18662        0.28069        0.40117
C          0.67979        2.49587       -0.01118
C         -0.67975        2.49588        0.01119
H          2.27462       -0.16426        1.95593
H         -2.89105        1.59550        1.93378
H          2.89108        1.59552       -1.93374
H         -2.27461       -0.16423       -1.95593
F          1.53610        3.46879       -0.01400
F         -1.53605        3.46881        0.01399
