56
5u_diome_mes_au.log	Energy: -807412.1704065
N          1.07489        0.79465        0.00707
N         -1.08751        0.86854       -0.00304
C         -0.02776        0.03661        0.00626
Au        -0.12042       -1.92816        0.07007
C          2.42061        0.30497        0.02979
C          3.12347        0.35300        1.24268
C          2.98247       -0.18093       -1.15879
C          4.43366       -0.12318        1.24167
C          4.29880       -0.64499       -1.10141
C          5.03848       -0.62812        0.08441
H          5.00227       -0.09650        2.17511
H          4.76278       -1.02384       -2.01589
C         -2.45904        0.45085       -0.00151
C         -3.11511        0.32287        1.22897
C         -3.07744        0.18491       -1.22949
C         -4.43946       -0.11526        1.20455
C         -4.40257       -0.25051       -1.19674
C         -5.09972       -0.40692        0.00611
H         -4.97319       -0.22896        2.15183
H         -4.90779       -0.46940       -2.14119
C          2.21019       -0.20541       -2.44557
H          1.51695       -1.06212       -2.48180
H          1.60207        0.70176       -2.58160
H          2.88699       -0.29556       -3.30508
C          2.48989        0.91051        2.48145
H          2.34172        1.99795        2.38708
H          1.50263        0.46006        2.66999
H          3.12012        0.72906        3.36120
C          6.44363       -1.14847        0.12691
H          7.10527       -0.46712        0.68160
H          6.48086       -2.12322        0.63980
H          6.85697       -1.28632       -0.88114
C         -2.34292        0.37490       -2.52315
H         -2.01899        1.42094       -2.64469
H         -1.44000       -0.25449       -2.57745
H         -2.98174        0.12076       -3.37838
C         -2.41938        0.65982        2.51360
H         -1.48072        0.09494        2.63118
H         -2.16389        1.73093        2.55225
H         -3.05811        0.43659        3.37748
C         -6.53444       -0.84161        0.00881
H         -7.20151        0.03489       -0.04022
H         -6.76663       -1.47765       -0.85662
H         -6.78826       -1.39387        0.92431
C         -0.65406        2.18302       -0.00213
C          0.72091        2.14866        0.00696
O         -1.56444        3.13427        0.01600
O          1.61720        3.12236        0.12038
C         -1.12096        4.48296       -0.02280
H         -0.46516        4.70725        0.83063
H         -0.58729        4.68989       -0.96393
H         -2.02478        5.09961        0.02669
C          2.38189        3.45327       -1.03824
H          3.05336        2.62675       -1.31534
H          1.71788        3.69914       -1.88238
H          2.98074        4.33178       -0.77189
