66
5u_diome_ad_au.log	Energy: -858197.8840394
N          1.10221        0.94231       -0.00454
N         -1.10224        0.94225        0.00454
C          0.68393        2.26823       -0.00541
C          0.00000        0.16068        0.00003
C         -0.68404        2.26820        0.00537
Au         0.00005       -1.83983        0.00004
O         -1.47645        3.33338       -0.01665
O          1.47626        3.33344        0.01673
C         -1.46823        4.14278        1.15838
H         -1.84398        3.57397        2.02382
H         -0.45390        4.51243        1.37152
H         -2.13665        4.98794        0.95739
C          1.46812        4.14281       -1.15827
H          1.84391        3.57390       -2.02364
H          0.45382        4.51250       -1.37148
H          2.13657        4.98794       -0.95729
C          2.51470        0.41975        0.02138
C          2.72634       -0.39104        1.30909
C          3.54891        1.55696        0.00577
C          2.76104       -0.45187       -1.21939
H          2.55938        0.26393        2.18012
H          1.98411       -1.20559        1.37547
C          4.13671       -0.98359        1.33136
H          3.39750        2.22417        0.86468
H          3.43115        2.16155       -0.90528
C          4.96751        0.97384        0.04114
H          2.02233       -1.27077       -1.27026
H          2.61924        0.15906       -2.12639
C          4.17120       -1.04483       -1.17299
H          4.25211       -1.58042        2.24982
C          5.16020        0.15205        1.31524
C          4.33118       -1.87684        0.10275
H          5.67671        1.81619        0.03086
C          5.19658        0.08900       -1.18368
H          4.31071       -1.68601       -2.05761
H          6.18292       -0.25550        1.35385
H          5.03586        0.78902        2.20633
H          3.59988       -2.70468        0.11311
H          5.32986       -2.34069        0.12737
H          5.10071        0.68022       -2.10941
H          6.21881       -0.32142       -1.17180
C         -2.51471        0.41969       -0.02138
C         -2.72628       -0.39122       -1.30904
C         -3.54889        1.55690       -0.00600
C         -2.76113       -0.45181        1.21945
H         -2.55926        0.26366       -2.18011
H         -1.98406       -1.20579       -1.37529
C         -4.13665       -0.98377       -1.33135
H         -3.39740        2.22400       -0.86500
H         -3.43123        2.16164        0.90494
C         -4.96750        0.97380       -0.04140
H         -2.02242       -1.27071        1.27044
H         -2.61939        0.15920        2.12640
C         -4.17129       -1.04476        1.17301
H         -4.25199       -1.58070       -2.24975
C         -5.16013        0.15188       -1.31543
C         -4.33120       -1.87690       -0.10267
H         -5.67669        1.81616       -0.03124
C         -5.19665        0.08909        1.18350
H         -4.31088       -1.68585        2.05768
H         -6.18285       -0.25566       -1.35405
H         -5.03572        0.78876       -2.20657
H         -3.59992       -2.70475       -0.11288
H         -5.32988       -2.34074       -0.12730
H         -5.10083        0.68041        2.10917
H         -6.21889       -0.32130        1.17160
