40
5u_dime_tbu_au.log	Energy: -472971.2358741
N          1.09925        1.07760        0.02185
N         -1.09838        1.07837        0.02131
C          0.68884        2.40984       -0.02508
C          0.00015        0.29612        0.03371
C         -0.68702        2.41030       -0.02630
Au        -0.00067       -1.70637       -0.03719
C         -1.54812        3.62420       -0.09765
H         -2.18390        3.75213        0.78666
H         -0.91004        4.51102       -0.15976
H         -2.18885        3.63241       -0.98829
C          1.55069        3.62355       -0.09062
H          0.91309        4.51106       -0.14760
H          2.18616        3.74626        0.79465
H          2.19183        3.63641       -0.98091
C         -2.50317        0.50433        0.05477
C          2.50363        0.50243        0.05411
C          3.58569        1.57564        0.14323
H          3.62667        2.22127       -0.74031
H          3.50304        2.18670        1.04975
H          4.54807        1.04961        0.19790
C          2.73843       -0.28011       -1.23838
H          2.05145       -1.13293       -1.35028
H          2.61673        0.37127       -2.11622
H          3.76298       -0.67720       -1.24439
C          2.65191       -0.36769        1.30473
H          1.98813       -1.24506        1.30637
H          3.68391       -0.73948        1.36436
H          2.44376        0.21700        2.21272
C         -3.58412        1.57836        0.14781
H         -3.49769        2.18895        1.05435
H         -3.62780        2.22447       -0.73520
H         -4.54672        1.05307        0.20566
C         -2.74014       -0.27619       -1.23848
H         -2.61919        0.37639       -2.11554
H         -2.05346       -1.12901       -1.35230
H         -3.76486       -0.67284       -1.24386
C         -2.65080       -0.36762        1.30427
H         -1.98843       -1.24605        1.30370
H         -2.44064        0.21525        2.21297
H         -3.68326       -0.73800        1.36460
