42
5u_dicf3_ptolu_au.log	Energy: -987702.7855412
N         -1.08318        0.52382        0.02365
N          1.08320        0.52388       -0.02378
C          0.00003       -0.27181       -0.00007
Au         0.00007       -2.24571       -0.00004
C         -2.43103        0.02304        0.01411
C         -3.20468        0.17037       -1.13332
C         -2.92912       -0.61686        1.14597
C         -4.49961       -0.33622       -1.13917
C         -4.22469       -1.12187        1.11813
C         -5.03371       -0.98800       -0.01877
H         -5.10945       -0.22509       -2.03881
H         -4.62090       -1.62205        2.00501
C          2.43106        0.02313       -0.01414
C          2.92918       -0.61695       -1.14588
C          3.20469        0.17068        1.13328
C          4.22477       -1.12193       -1.11793
C          4.49963       -0.33588        1.13924
C          5.03375       -0.98787        0.01897
H          4.62101       -1.62225       -2.00471
H          5.10945       -0.22457        2.03887
C         -6.44245       -1.49647       -0.02607
H         -7.13777       -0.69759        0.28053
H         -6.74768       -1.82690       -1.02860
H         -6.57567       -2.33318        0.67316
C          6.44248       -1.49639        0.02644
H          7.13785       -0.69769       -0.28047
H          6.74770       -1.82644        1.02911
H          6.57563       -2.33340       -0.67244
C          0.68419        1.84820       -0.03061
C         -0.68424        1.84816        0.03051
C          1.68324        2.98454       -0.11009
C         -1.68342        2.98437        0.11004
H          2.79978        0.67569        2.01251
H         -2.31511       -0.70220        2.04528
H          2.31520       -0.70244       -2.04519
H         -2.79979        0.67522       -2.01266
F          1.11932        4.06458       -0.61804
F          2.69900        2.63956       -0.89271
F          2.16311        3.27211        1.09472
F         -1.11944        4.06469        0.61729
F         -2.16395        3.27140       -1.09465
F         -2.69873        2.63950        0.89329
