54
5u_dicf3_mes_au.log	Energy: -1086215.7754867
N         -1.08453        0.54849        0.02769
N          1.08499        0.50059       -0.00491
C         -0.01565       -0.26616        0.00831
Au        -0.06242       -2.23549       -0.00305
C         -2.43250        0.03581        0.01167
C         -3.05113       -0.14901       -1.23011
C         -3.04214       -0.27068        1.23376
C         -4.33793       -0.68808       -1.22174
C         -4.32847       -0.80764        1.18132
C         -4.99290       -1.02271       -0.03149
H         -4.84648       -0.84664       -2.17621
H         -4.83086       -1.05832        2.11920
C          2.42401       -0.03212       -0.00525
C          3.02401       -0.32284       -1.23813
C          3.04152       -0.26797        1.23044
C          4.31196       -0.85674       -1.20372
C          4.32997       -0.80258        1.20107
C          4.98442       -1.09563        0.00001
H          4.80710       -1.09119       -2.14954
H          4.83817       -0.99613        2.14918
C         -2.35014       -0.00872        2.53814
H         -1.38848       -0.54221        2.61064
H         -2.13857        1.06474        2.67015
H         -2.97310       -0.32843        3.38274
C         -2.36455        0.23217       -2.50820
H         -2.17434        1.31664       -2.55629
H         -1.39221       -0.27442       -2.62028
H         -2.98047       -0.03213       -3.37677
C         -6.39029       -1.56350       -0.05254
H         -6.59610       -2.11892       -0.97790
H         -6.58092       -2.22695        0.80233
H         -7.11988       -0.73883        0.00401
C          2.34613        0.02569        2.52651
H          2.11307        1.09630        2.62690
H          1.39745       -0.52892        2.61360
H          2.97598       -0.25881        3.37853
C          2.31200       -0.07919       -2.53526
H          1.37609       -0.65815       -2.60081
H          2.05259        0.98294       -2.65921
H          2.94155       -0.36998       -3.38538
C          6.38490       -1.62798        0.00091
H          6.60072       -2.20027        0.91359
H          6.57397       -2.27255       -0.86865
H          7.10835       -0.79718       -0.04413
C          0.71288        1.82977        0.00060
C         -0.65627        1.86318        0.03182
C          1.72936        2.94609       -0.02892
C         -1.58403        3.06300        0.05146
F          1.12565        4.11310       -0.16382
F          2.56673        2.78353       -1.04868
F          2.44535        2.96150        1.09077
F         -1.24437        3.88594        1.03212
F         -1.51509        3.71552       -1.10200
F         -2.84121        2.68869        0.24297
