48
5u_dif_mes_au.log	Energy: -788375.4871564
N         -1.07721        1.10576       -0.22530
N          1.07727        1.10573       -0.22528
C          0.00002        0.27939       -0.17447
Au        -0.00008       -1.70626        0.45068
C         -2.43781        0.66655       -0.20270
C         -2.97261        0.06278       -1.34700
C         -3.17730        0.84469        0.97309
C         -4.30121       -0.36131       -1.28950
C         -4.50137        0.40649        0.97755
C         -5.08015       -0.19981       -0.14097
H         -4.73935       -0.83475       -2.17250
H         -5.09472        0.53444        1.88711
C          2.43787        0.66651       -0.20266
C          2.97275        0.06295       -1.34703
C          3.17728        0.84444        0.97321
C          4.30135       -0.36115       -1.28953
C          4.50135        0.40624        0.97768
C          5.08021       -0.19986       -0.14091
H          4.73954       -0.83442       -2.17259
H          5.09464        0.53403        1.88731
C         -2.55052        1.46361        2.18618
H         -1.62040        0.93778        2.45500
H         -2.29836        2.52227        2.01526
H         -3.23089        1.41595        3.04631
C         -2.13999       -0.15269       -2.57427
H         -1.56643        0.74696       -2.84441
H         -1.40996       -0.96067       -2.40266
H         -2.76826       -0.43217       -3.43022
C         -6.49396       -0.70058       -0.09579
H         -6.95709       -0.69349       -1.09279
H         -6.52542       -1.73916        0.27350
H         -7.11604       -0.09467        0.57848
C          2.55042        1.46316        2.18636
H          2.29824        2.52184        2.01558
H          1.62030        0.93726        2.45505
H          3.23075        1.41540        3.04651
C          2.14021       -0.15228       -2.57440
H          1.41012       -0.96023       -2.40300
H          1.56674        0.74746       -2.84446
H          2.76854       -0.43166       -3.43035
C          6.49401       -0.70064       -0.09572
H          7.11610       -0.09469        0.57852
H          6.52547       -1.73920        0.27362
H          6.95714       -0.69359       -1.09272
C          0.67684        2.42516       -0.29945
C         -0.67675        2.42517       -0.29947
F          1.53805        3.40978       -0.34871
F         -1.53793        3.40982       -0.34876
