86
5u_diph_dipp_au.log	Energy: -1101146.8744779
N          1.07718        0.14478        0.08294
N         -1.07718        0.14494       -0.08308
C          0.68906        1.48170        0.03853
C         -3.20165       -0.35613        0.98931
C         -0.00006       -0.64989       -0.00006
C         -0.68886        1.48181       -0.03872
C          2.87825       -0.81270        1.42246
C          2.41899       -0.35402        0.17513
C         -2.41907       -0.35367       -0.17516
C         -4.50211       -0.85507        0.87984
H         -5.14471       -0.87706        1.76248
C          4.50207       -0.85570       -0.87967
H          5.14476       -0.87776       -1.76224
C          4.18524       -1.30533        1.47202
H          4.58472       -1.67340        2.41967
C          3.20170       -0.35657       -0.98925
C         -2.87852       -0.81224       -1.42245
C          4.98794       -1.32622        0.33580
H          6.00762       -1.71248        0.39961
C         -4.98818       -1.32547       -0.33559
H         -6.00793       -1.71156       -0.39931
C         -4.18560       -1.30466       -1.47189
H         -4.58522       -1.67264       -2.41952
C         -2.66601        0.12415        2.32280
H         -1.69434        0.60906        2.14434
C          2.66630        0.12388       -2.32279
H          1.69460        0.60876       -2.14444
C          3.57525        1.17408       -2.95773
H          3.12222        1.56070       -3.88289
H          4.55833        0.75665       -3.22416
H          3.73724        2.02276       -2.27673
C         -3.57482        1.17430        2.95805
H         -3.12160        1.56078        3.88318
H         -4.55786        0.75687        3.22461
H         -3.73689        2.02307        2.27719
C          2.41244       -1.06180       -3.25549
H          1.97919       -0.72028       -4.20811
H          3.34613       -1.59839       -3.48476
H          1.71460       -1.78377       -2.80203
C         -2.41197       -1.06165        3.25530
H         -3.34563       -1.59825        3.48470
H         -1.71424       -1.78357        2.80160
H         -1.97851       -0.72026        4.20788
C          2.02570       -0.78216        2.67824
H          1.06656       -0.30064        2.42910
C          1.71354       -2.19518        3.17102
H          1.20905       -2.78909        2.38923
H          2.62948       -2.73535        3.45519
H          1.05206       -2.16462        4.04987
C          2.67297        0.04849        3.78745
H          2.86946        1.08147        3.46479
H          2.01235        0.09264        4.66629
H          3.62895       -0.38750        4.11483
C         -2.02606       -0.78183       -2.67830
H         -1.06681       -0.30050       -2.42920
C         -2.67324        0.04898       -3.78743
H         -2.01270        0.09297       -4.66634
H         -3.62936       -0.38676       -4.11470
H         -2.86941        1.08202       -3.46475
C         -1.71420       -2.19491       -3.17111
H         -1.20978       -2.78891       -2.38935
H         -2.63026       -2.73490       -3.45523
H         -1.05276       -2.16446       -4.05000
Au        -0.00024       -2.62368       -0.00005
C          1.63152        2.60074       -0.05869
C          1.37319        3.61463       -0.99520
C          2.79415        2.67238        0.72084
C          2.25782        4.67655       -1.14391
H          0.47672        3.55946       -1.61620
C          3.67915        3.73548        0.56414
H          3.01098        1.89697        1.45484
C          3.41481        4.73848       -0.36678
H          2.04754        5.45676       -1.87844
H          4.58141        3.78024        1.17758
H          4.11200        5.57038       -0.48815
C         -1.63113        2.60100        0.05859
C         -1.37242        3.61490        0.99497
C         -2.79395        2.67276       -0.72066
C         -2.25684        4.67698        1.14382
H         -0.47581        3.55964        1.61576
C         -3.67874        3.73602       -0.56381
H         -3.01109        1.89734       -1.45455
C         -3.41401        4.73905        0.36697
H         -2.04626        5.45721        1.87826
H         -4.58114        3.78088       -1.17704
H         -4.11104        5.57107        0.48846
