74
5u_dinme2_ad_au.log	Energy: -882555.0669272
N         -1.10129       -0.75757       -0.00014
N          1.10123       -0.75725        0.00013
C         -0.68678       -2.10251       -0.00012
C         -0.00013        0.01787        0.00002
C          0.68709       -2.10243        0.00010
Au        -0.00042        2.02644        0.00010
C         -2.50538       -0.21122       -0.00007
C         -2.71843        0.63379        1.26678
C         -3.57713       -1.31409       -0.00009
C         -2.71854        0.63397       -1.26677
H         -2.58779       -0.00834        2.15377
H         -1.95410        1.42715        1.33593
C         -4.10858        1.27191        1.25317
H         -3.46953       -1.95213        0.88682
H         -3.46966       -1.95193       -0.88713
C         -4.97942       -0.68819        0.00002
H         -1.95420        1.42732       -1.33589
H         -2.58798       -0.00804       -2.15386
C         -4.10869        1.27209       -1.25295
H         -4.21735        1.89550        2.15462
C         -5.16800        0.17038        1.24952
C         -4.25680        2.13992        0.00018
H         -5.71118       -1.51133       -0.00001
C         -5.16811        0.17055       -1.24935
H         -4.21754        1.89581       -2.15430
H         -6.17793        0.61041        1.26144
H         -5.07748       -0.44712        2.15847
H         -3.49737        2.94232        0.00020
H         -5.23913        2.63817        0.00025
H         -5.07767       -0.44682       -2.15840
H         -6.17804        0.61059       -1.26113
C          2.50510       -0.21047       -0.00003
C          2.71792        0.63468       -1.26682
C          3.57697       -1.31315       -0.00018
C          2.71820        0.63466        1.26672
H          2.58728       -0.00738       -2.15386
H          1.95348        1.42795       -1.33582
C          4.10800        1.27296       -1.25326
H          3.46943       -1.95102       -0.88721
H          3.46965       -1.95105        0.88684
C          4.97919       -0.68712       -0.00032
H          1.95376        1.42790        1.33591
H          2.58777       -0.00743        2.15378
C          4.10827        1.27295        1.25286
H          4.21663        1.89664       -2.15466
C          5.16757        0.17157       -1.24977
C          4.25620        2.14090       -0.00021
H          5.71105       -1.51018       -0.00041
C          5.16783        0.17154        1.24911
H          4.21711        1.89661        2.15425
H          6.17743        0.61174       -1.26173
H          5.07706       -0.44587       -2.15876
H          3.49668        2.94321       -0.00012
H          5.23847        2.63926       -0.00031
H          5.07753       -0.44591        2.15811
H          6.17770        0.61170        1.26086
N         -1.51136       -3.19924       -0.00016
N          1.51127       -3.19941        0.00027
C         -1.78651       -3.90449       -1.22698
H         -1.21158       -4.84613       -1.31189
H         -2.85861       -4.16320       -1.29647
H         -1.53651       -3.27295       -2.09018
C         -1.78487       -3.90575        1.22629
H         -2.85682       -4.16481        1.29676
H         -1.20958       -4.84729        1.30966
H         -1.53407       -3.27492        2.08978
C          1.78831       -3.90437       -1.22624
H          2.86168       -4.15745       -1.29768
H          1.21833       -4.84918       -1.30882
H          1.53306       -3.27526       -2.08965
C          1.78955       -3.90318        1.22718
H          1.22068       -4.84858        1.31054
H          2.86323       -4.15500        1.29854
H          1.53375       -3.27379        2.09023
