54
5u_diph_tbu_au.log	Energy: -713173.9511811
N         -0.23412       -1.09980        0.04893
N         -0.23413        1.09982        0.04900
C          1.09436       -0.68555        0.04742
C         -1.01726        0.00001        0.04058
C          1.09436        0.68557        0.04745
Au        -3.01443       -0.00001       -0.04610
C         -0.77805        2.51328        0.06333
C         -0.77804       -2.51326        0.06325
C          0.33257       -3.55568        0.15003
H          1.00010       -3.54383       -0.71839
H          0.93746       -3.45474        1.05864
H         -0.15639       -4.53906        0.18180
C         -1.54462       -2.75082       -1.23765
H         -2.41184       -2.08166       -1.34849
H         -0.88759       -2.60631       -2.10773
H         -1.91761       -3.78416       -1.25723
C         -1.65937       -2.68659        1.30143
H         -1.08807       -2.47735        2.21763
H         -2.54624       -2.03495        1.29535
H         -2.01472       -3.72508        1.34824
C          0.33257        3.55568        0.15024
H          0.93750        3.45461        1.05881
H          1.00006        3.54396       -0.71822
H         -0.15638        4.53907        0.18218
C         -1.54450        2.75087       -1.23764
H         -0.88742        2.60627       -2.10766
H         -2.41178        2.08178       -1.34850
H         -1.91740        3.78425       -1.25728
C         -1.65950        2.68658        1.30142
H         -2.54637        2.03493        1.29524
H         -1.08830        2.47736        2.21768
H         -2.01488        3.72507        1.34819
C          2.33670       -1.48632        0.01263
C          2.90643       -1.83804       -1.21606
C          3.01015       -1.79724        1.19842
C          4.11707       -2.52447       -1.25575
H          2.39581       -1.57149       -2.14480
C          4.22099       -2.48341        1.15673
H          2.57974       -1.50096        2.15811
C          4.77249       -2.85230       -0.06947
H          4.55471       -2.79931       -2.21781
H          4.73972       -2.72693        2.08636
H          5.72281       -3.38965       -0.10128
C          2.33670        1.48634        0.01263
C          3.01024        1.79717        1.19839
C          2.90636        1.83812       -1.21608
C          4.22108        2.48332        1.15666
H          2.57989        1.50084        2.15809
C          4.11700        2.52452       -1.25581
H          2.39567        1.57164       -2.14480
C          4.77251        2.85227       -0.06956
H          4.73989        2.72677        2.08627
H          4.55458        2.79942       -2.21788
H          5.72285        3.38960       -0.10139
