36
5u_dih_dIphme_au.log	Energy: -565433.1338009
N         -1.08153       -1.44998       -0.00289
C         -0.00001       -0.64770       -0.00001
N          1.08150       -1.45000        0.00282
C         -2.44201       -1.00657       -0.01617
C         -2.91312       -0.25164       -1.08876
C         -4.23523        0.18222       -1.08384
H         -4.60522        0.77280       -1.92541
C         -5.10289       -0.13755       -0.03114
C         -4.60064       -0.90537        1.02883
H         -5.25566       -1.16146        1.86507
C         -3.27959       -1.33960        1.04588
C         -6.53572        0.29956       -0.05113
H         -6.67607        1.20162       -0.66210
H         -6.90920        0.50378        0.96208
H         -7.17242       -0.49157       -0.48045
C          2.44198       -1.00660        0.01612
C          2.91320       -0.25201        1.08889
C          4.23531        0.18185        1.08398
H          4.60539        0.77216        1.92569
C          5.10287       -0.13759        0.03110
C          4.60051       -0.90507       -1.02908
H          5.25544       -1.16089       -1.86546
C          3.27946       -1.33930       -1.04613
C          6.53570        0.29950        0.05108
H          6.90913        0.50389       -0.96211
H          7.17241       -0.49170        0.48025
H          6.67609        1.20145        0.66221
C         -0.68015       -2.77063       -0.00122
H         -1.39800       -3.58637       -0.01490
C          0.68010       -2.77064        0.00111
H          1.39793       -3.58640        0.01475
Au         0.00002        1.32597        0.00005
H         -2.89576       -1.92127        1.88699
H         -2.25456       -0.02202       -1.92948
H          2.89554       -1.92070       -1.88738
H          2.25472       -0.02264        1.92975
