58
5u_dih_dIad_au.log	Energy: -714740.3794177
N         -1.08980        1.29421        0.00000
C          0.00000        0.49974        0.00000
N          1.08980        1.29421        0.00000
C          2.51421        0.84681        0.00000
C          2.80441        0.02071       -1.26069
C          3.43868        2.07133       -0.00002
C          2.80442        0.02073        1.26070
H          2.58636        0.62834       -2.15450
H          2.13674       -0.85790       -1.29879
C          4.26439       -0.43982       -1.25225
H          3.24597        2.68987        0.89192
H          3.24597        2.68985       -0.89196
C          4.90333        1.61887       -0.00002
H          2.13676       -0.85788        1.29882
H          2.58637        0.62837        2.15451
C          4.26440       -0.43979        1.25226
H          4.44760       -1.04383       -2.15465
C          5.18132        0.78506       -1.25149
C          4.52431       -1.28210        0.00001
H          5.53998        2.51712       -0.00003
C          5.18133        0.78509        1.25147
H          4.44762       -1.04378        2.15468
H          5.01489        1.38726       -2.15991
H          6.23636        0.46915       -1.26805
H          3.87727       -2.17666        0.00003
H          5.56369       -1.64644        0.00001
H          6.23637        0.46917        1.26803
H          5.01491        1.38730        2.15987
C         -2.51421        0.84681       -0.00000
C         -2.80441        0.02071        1.26069
C         -3.43868        2.07133        0.00002
C         -2.80442        0.02073       -1.26070
H         -2.58636        0.62834        2.15450
H         -2.13674       -0.85790        1.29880
C         -4.26439       -0.43982        1.25225
H         -3.24597        2.68987       -0.89192
H         -3.24597        2.68985        0.89196
C         -4.90333        1.61887        0.00002
H         -2.13675       -0.85788       -1.29882
H         -2.58636        0.62837       -2.15451
C         -4.26440       -0.43979       -1.25226
H         -4.44760       -1.04383        2.15465
C         -5.18132        0.78506        1.25149
C         -4.52431       -1.28210       -0.00002
H         -5.53998        2.51712        0.00003
C         -5.18133        0.78509       -1.25148
H         -4.44762       -1.04378       -2.15468
H         -5.01490        1.38726        2.15990
H         -6.23636        0.46915        1.26805
H         -3.87727       -2.17666       -0.00003
H         -5.56369       -1.64644       -0.00002
H         -6.23637        0.46917       -1.26803
H         -5.01491        1.38730       -2.15988
C          0.67927        2.60794        0.00000
H          1.36857        3.44350        0.00000
C         -0.67927        2.60794        0.00000
H         -1.36857        3.44350        0.00000
Au        -0.00000       -1.48889        0.00000
