42
5u_diome_tbu_au.log	Energy: -567185.8290347
N         -0.73538       -1.10074       -0.04862
N         -0.73527        1.10088        0.04876
C         -2.06086       -0.68349       -0.02697
C          0.04782        0.00003        0.00004
C         -2.06079        0.68384        0.02715
Au         2.04380       -0.00011        0.00012
O         -3.12228        1.47727        0.08511
O         -3.12248       -1.47678       -0.08492
C         -3.94232        1.51583       -1.08328
H         -3.37782        1.91673       -1.94002
H         -4.32171        0.51245       -1.32815
H         -4.78019        2.18318       -0.85123
C         -3.94181       -1.51590        1.08395
H         -4.78028       -2.18248        0.85185
H         -3.37704       -1.91796        1.93996
H         -4.32041       -0.51249        1.32996
C         -0.21898       -2.52046       -0.14089
C         -0.21867        2.52054        0.14049
C          0.57767        2.66048        1.43730
H         -0.05242        2.43226        2.30921
H          1.45809        2.00036        1.46657
H          0.93553        3.69487        1.53332
C         -1.36194        3.53352        0.17680
H         -1.95859        3.52594       -0.74404
H         -2.02923        3.39015        1.03405
H         -0.90187        4.52756        0.26257
C          0.63018        2.81239       -1.09616
H          1.52709        2.17714       -1.15787
H          0.04526        2.66916       -2.01643
H          0.96803        3.85738       -1.06314
C         -1.36231       -3.53335       -0.17730
H         -1.95830       -3.52635        0.74397
H         -2.03022       -3.38944       -1.03398
H         -0.90233       -4.52735       -0.26397
C          0.63007       -2.81282        1.09550
H          0.96778       -3.85783        1.06210
H          1.52705       -2.17769        1.15729
H          0.04530       -2.66979        2.01590
C          0.57696       -2.65998       -1.43799
H         -0.05347       -2.43148       -2.30959
H          1.45735       -1.99986       -1.46738
H          0.93478       -3.69434       -1.53448
