44
5u_diome_ptolu_au.log	Energy: -708900.7239963
N          1.07344        0.85316        0.02607
N         -1.09016        0.92854        0.01835
C          0.71943        2.20847        0.04541
C         -3.29644        0.84479        1.06212
C         -0.03029        0.09243        0.01735
C         -0.65447        2.24486        0.03944
C          3.26603        0.74823        1.08564
C          2.41773        0.37408        0.04422
C         -2.46068        0.52229       -0.00504
C         -4.62022        0.42364        1.03587
H         -5.27436        0.67228        1.87518
C          4.18382       -0.91417       -0.95617
H          4.54006       -1.55629       -1.76524
C          4.57529        0.28260        1.09152
H          5.23989        0.57636        1.90778
C          2.87244       -0.44743       -0.98587
C         -2.94036       -0.20410       -1.09258
C          5.05758       -0.56035        0.07916
C         -5.13012       -0.31960       -0.03894
C         -4.26690       -0.62654       -1.09750
H         -4.64203       -1.19785       -1.94997
Au        -0.11615       -1.87777        0.07790
O         -1.55828        3.20077        0.05693
O          1.61945        3.18161        0.11700
C         -1.11078        4.54867        0.02240
H         -0.44767        4.76556        0.87209
H         -0.58527        4.75972       -0.92214
H         -2.01283        5.16687        0.08277
C          2.32949        3.49255       -1.08258
H          2.93920        2.63744       -1.41252
H          1.62860        3.78152       -1.88188
H          2.98672        4.33606       -0.84246
C          6.46483       -1.07330        0.11836
H          7.17463       -0.27420        0.37754
H          6.56942       -1.85934        0.88384
H          6.76721       -1.50443       -0.84530
C         -6.56700       -0.74411       -0.06127
H         -7.21400        0.09964       -0.35212
H         -6.73952       -1.55653       -0.77993
H         -6.90135       -1.08140        0.93043
H          2.90153        1.40069        1.88064
H         -2.90999        1.41702        1.90716
H          2.20925       -0.70300       -1.81539
H         -2.28229       -0.42536       -1.93586
