72
5u_dicf3_dipp_au.log	Energy: -1233955.8790717
N          1.08436        0.49308       -0.01235
N         -1.08122        0.49849        0.06098
C          0.68994        1.81503        0.03814
C         -2.97776       -0.47665        1.24897
C         -0.00096       -0.29619       -0.00692
C         -0.67842        1.81868        0.11201
C          3.08773       -0.19898        1.18904
C          2.43062       -0.02581       -0.03950
C         -2.42488       -0.02758        0.04038
C         -4.26166       -1.02408        1.18435
H         -4.73807       -1.38386        2.09887
C          4.27544       -0.89725       -1.27049
H          4.75322       -1.16948       -2.21398
C          4.37541       -0.73911        1.13904
H          4.92832       -0.89425        2.06729
C          2.98649       -0.35860       -1.28459
C         -3.08001       -0.09204       -1.19860
C          4.96138       -1.08352       -0.07477
H          5.97013       -1.50199       -0.08897
C         -4.94480       -1.10846       -0.02459
H         -5.94915       -1.53681       -0.05006
C         -4.36174       -0.64828       -1.20095
H         -4.91270       -0.72274       -2.14054
C         -2.25006       -0.37607        2.57475
H         -1.26627        0.08711        2.39436
C          2.24922       -0.16465       -2.59490
H          1.28742        0.32895       -2.37968
C          3.01939        0.74854       -3.54908
H          2.43537        0.92219       -4.46523
H          3.97812        0.30001       -3.85030
H          3.23239        1.72235       -3.08713
C         -3.00052        0.52894        3.55291
H         -2.42956        0.64176        4.48668
H         -3.98362        0.10883        3.81431
H         -3.16571        1.52857        3.12668
C          1.93340       -1.51164       -3.24604
H          1.34924       -1.37195       -4.16777
H          2.85313       -2.05576       -3.50941
H          1.34921       -2.15872       -2.56951
C         -1.99361       -1.75986        3.17055
H         -2.93468       -2.28020        3.40455
H         -1.42707       -2.39882        2.47223
H         -1.41435       -1.68098        4.10249
C          2.42934        0.11646        2.51851
H          1.54720        0.74741        2.32456
C          1.93311       -1.17061        3.18146
H          1.23130       -1.71682        2.53043
H          2.77193       -1.84655        3.40817
H          1.41428       -0.94697        4.12596
C          3.34265        0.90916        3.45052
H          3.71051        1.82528        2.96783
H          2.79561        1.19810        4.36003
H          4.21336        0.31728        3.77037
C         -2.43107        0.36663       -2.49019
H         -1.52251        0.93633       -2.23715
C         -3.33227        1.30681       -3.28784
H         -2.79965        1.68129       -4.17448
H         -4.24040        0.79740       -3.64363
H         -3.64114        2.17263       -2.68514
C         -1.99106       -0.83949       -3.32240
H         -1.30113       -1.48791       -2.75859
H         -2.85565       -1.45215       -3.62073
H         -1.47697       -0.51295       -4.23911
Au        -0.01392       -2.26847       -0.08631
C         -1.64247        2.98420        0.18703
C          1.67740        2.95930        0.03907
F          1.09418        4.06925       -0.37972
F          2.69672        2.69301       -0.77054
F          2.16222        3.16389        1.25942
F         -1.14590        3.94014        0.95525
F         -2.80454        2.60162        0.70267
F         -1.86998        3.48122       -1.02380
