82
5u_dinme2_dipp_au.log	Energy: -979513.9442309
N          1.08040       -0.59511        0.03831
N         -1.08035       -0.59522       -0.03850
C          0.69077       -1.94425        0.00178
C         -2.99085        0.30145       -1.27318
C         -0.00001        0.19586       -0.00020
C         -0.69061       -1.94429       -0.00154
C          3.13249       -0.10658       -1.16317
C          2.43279       -0.12419        0.05446
C         -2.43279       -0.12443       -0.05443
C         -4.30701        0.77202       -1.23777
H         -4.77881        1.11715       -2.16030
C          4.30663        0.77266        1.23809
H          4.77817        1.11805        2.16066
C          4.44556        0.36889       -1.13867
H          5.02292        0.40375       -2.06472
C          2.99049        0.30204        1.27325
C         -3.13216       -0.10656        1.16338
C          5.02604        0.80451        0.04847
H          6.05396        1.17388        0.04621
C         -5.02610        0.80412       -0.04796
H         -6.05403        1.17343       -0.04551
C         -4.44526        0.36883        1.13912
H         -5.02237        0.40388        2.06532
C         -2.22205        0.28634       -2.58210
H         -1.26562       -0.23383       -2.40853
C          2.22136        0.28719        2.58198
H          1.26492       -0.23290        2.40827
C          2.96328       -0.47154        3.68316
H          2.34489       -0.52568        4.59162
H          3.90365        0.02978        3.95736
H          3.21186       -1.49959        3.38242
C         -2.96433       -0.47249       -3.68296
H         -2.34614       -0.52694       -4.59154
H         -3.90466        0.02895       -3.95708
H         -3.21306       -1.50043       -3.38196
C          1.89627        1.70892        3.04302
H          1.29620        1.69366        3.96528
H          2.81387        2.28285        3.24367
H          1.32356        2.25844        2.27627
C         -1.89692        1.70796       -3.04343
H         -2.81452        2.28195       -3.24392
H         -1.32395        2.25752       -2.27692
H         -1.29710        1.69250       -3.96585
C          2.47977       -0.52341       -2.46555
H          1.55815       -1.07143       -2.21787
C          2.07174        0.71049       -3.27345
H          1.39623        1.36073       -2.69525
H          2.95162        1.30931       -3.55565
H          1.55258        0.41691       -4.19891
C          3.35677       -1.47004       -3.28008
H          3.65894       -2.34341       -2.68372
H          2.81153       -1.82979       -4.16561
H          4.27100       -0.97565       -3.64214
C         -2.47911       -0.52309        2.46569
H         -1.55721       -1.07061        2.21794
C         -3.35558       -1.47026        3.28019
H         -2.81017       -1.82968        4.16575
H         -4.27014       -0.97642        3.64218
H         -3.65717       -2.34380        2.68379
C         -2.07169        0.71098        3.27364
H         -1.39659        1.36162        2.69540
H         -2.95186        1.30930        3.55597
H         -1.55227        0.41762        4.19903
Au        -0.00014        2.17079       -0.00031
N          1.60446       -2.95518       -0.14431
N         -1.60426       -2.95517        0.14499
C          2.46403       -3.32552        0.95912
H          1.99272       -4.06204        1.63838
H          3.39580       -3.76260        0.57043
H          2.73660       -2.43682        1.54060
C          1.33912       -3.98685       -1.12221
H          2.29416       -4.37595       -1.50925
H          0.76968       -4.84420       -0.71734
H          0.77897       -3.56409       -1.96759
C         -1.33798       -3.98700        1.12247
H         -2.29271       -4.37757        1.50875
H         -0.76716       -4.84338        0.71747
H         -0.77890       -3.56393        1.96841
C         -2.46374       -3.32597       -0.95836
H         -1.99263       -4.06330       -1.63685
H         -3.39589       -3.76220       -0.56962
H         -2.73555       -2.43758       -1.54068
