66
5u_dif_dipp_au.log	Energy: -935999.0693742
N          1.08229       -0.00115        0.95544
N         -1.08227        0.00118        0.95549
C          0.68084       -0.00032        2.27337
C         -3.05978       -1.24239        0.27441
C         -0.00001       -0.00009        0.15746
C         -0.68074        0.00070        2.27340
C          3.06760       -1.23737        0.28203
C          2.44469        0.00133        0.49950
C         -2.44470       -0.00122        0.49964
C         -4.37237       -1.21422       -0.20346
H         -4.89506       -2.15397       -0.39437
C          4.37214        1.21446       -0.20399
H          4.89466        2.15425       -0.39516
C          4.37963       -1.20392       -0.19680
H          4.90780       -2.14147       -0.38314
C          3.05956        1.24254        0.27391
C         -3.06741        1.23753        0.28187
C          5.02269        0.00663       -0.43675
H          6.04966        0.00869       -0.80868
C         -5.02274       -0.00634       -0.43652
H         -6.04971       -0.00833       -0.80842
C         -4.37946        1.20416       -0.19691
H         -4.90749        2.14175       -0.38347
C         -2.35265       -2.55925        0.52346
H         -1.34825       -2.33887        0.91996
C          2.35227        2.55936        0.52273
H          1.34767        2.33893        0.91871
C          3.07907        3.38849        1.58139
H          2.52289        4.31364        1.79442
H          4.08671        3.67756        1.24602
H          3.18636        2.82788        2.52181
C         -3.07996       -3.38854        1.58162
H         -2.52382       -4.31366        1.79485
H         -4.08739       -3.67768        1.24568
H         -3.18781       -2.82804        2.52205
C          2.15674        3.33512       -0.77972
H          1.59548        4.26382       -0.59662
H          3.12036        3.61168       -1.23406
H          1.59769        2.73973       -1.51959
C         -2.15650       -3.33483       -0.77902
H         -3.11992       -3.61126       -1.23387
H         -1.59705       -2.73936       -1.51852
H         -1.59538       -4.26358       -0.59578
C          2.36499       -2.55669        0.53127
H          1.37663       -2.34052        0.96843
C          2.11968       -3.30231       -0.78077
H          1.53451       -2.68939       -1.48553
H          3.06626       -3.56731       -1.27614
H          1.56410       -4.23475       -0.59920
C          3.12374       -3.41387        1.54364
H          3.27337       -2.87404        2.49033
H          2.56588       -4.33732        1.75938
H          4.11401       -3.70786        1.16394
C         -2.36460        2.55681        0.53076
H         -1.37624        2.34060        0.96789
C         -3.12316        3.41430        1.54301
H         -2.56516        4.33772        1.75851
H         -4.11342        3.70834        1.16333
H         -3.27278        2.87470        2.48982
C         -2.11928        3.30211       -0.78145
H         -1.53424        2.68896       -1.48612
H         -3.06586        3.56713       -1.27682
H         -1.56356        4.23452       -0.60012
Au        -0.00005       -0.00027       -1.81193
F          1.54316        0.00000        3.24264
F         -1.54301        0.00064        3.24272
