48
5u_dicl_mes_au.log	Energy: -1240376.7930379
N         -1.08489        0.85856       -0.00043
N          1.08493        0.85853        0.00058
C          0.00001        0.06523        0.00007
Au        -0.00003       -1.90264        0.00013
C         -2.44378        0.39649       -0.00101
C         -3.07478        0.19022       -1.23409
C         -3.07619        0.19078        1.23238
C         -4.39266       -0.26757       -1.20439
C         -4.39327       -0.26655        1.20192
C         -5.06637       -0.50575       -0.00184
H         -4.91185       -0.43487       -2.15159
H         -4.91327       -0.43314        2.14894
C          2.44380        0.39642        0.00116
C          3.07622        0.19062       -1.23240
C          3.07469        0.18993        1.23408
C          4.39305       -0.26689       -1.20201
C          4.39264       -0.26821        1.20431
C          5.06623       -0.50624        0.00189
H          4.91297       -0.43369       -2.14906
H          4.91175       -0.43592        2.15145
C         -2.36999        0.47562        2.52426
H         -1.42715       -0.08799        2.60984
H         -2.12061        1.54536        2.61388
H         -2.99957        0.20844        3.38220
C         -2.36834        0.47434       -2.52597
H         -2.12074        1.54439       -2.61693
H         -1.42449       -0.08777       -2.61025
H         -2.99701        0.20493       -3.38386
C         -6.47330       -1.02220        0.00115
H         -6.99503       -0.78225       -0.93522
H         -6.48142       -2.11907        0.11226
H         -7.05254       -0.60661        0.83770
C          2.36840        0.47383        2.52608
H          2.12095        1.54389        2.61731
H          1.42449       -0.08817        2.61034
H          2.99713        0.20416        3.38385
C          2.36983        0.47544       -2.52418
H          1.42723       -0.08857       -2.60982
H          2.11995        1.54509       -2.61356
H          2.99946        0.20872       -3.38221
C          6.47365       -1.02138       -0.00253
H          6.98208       -0.82058        0.95010
H          6.48515       -2.11230       -0.16103
H          7.06377       -0.56984       -0.81265
C          0.68441        2.18443        0.00040
C         -0.68434        2.18445       -0.00024
Cl         1.77536        3.46489        0.00094
Cl        -1.77525        3.46493       -0.00077
