48
5u_dih_dImes_au.log	Energy: -663943.3745489
N          1.08158        1.33067        0.00035
C         -0.00000        0.53362        0.00015
N         -1.08158        1.33067        0.00037
C          2.44020        0.86586        0.00022
C          3.07000        0.64634       -1.23222
C          4.38706        0.18631       -1.20240
H          4.90161        0.00591       -2.14988
C          5.06341       -0.04637       -0.00003
C          4.38708        0.18569        1.20247
H          4.90165        0.00481        2.14984
C          3.07002        0.64571        1.23254
C          2.35263        0.88493        2.52821
H          1.47642        0.22421        2.63284
H          1.98622        1.92036        2.60830
H          3.01526        0.69760        3.38240
C          6.49086       -0.50329       -0.00016
H          6.72453       -1.10122       -0.89191
H          6.72456       -1.10162        0.89132
H          7.17123        0.36430        0.00002
C          2.35259        0.88621       -2.52776
H          1.47645        0.22547       -2.63276
H          3.01524        0.69940       -3.38205
H          1.98609        1.92165       -2.60729
C         -2.44020        0.86585        0.00024
C         -3.06999        0.64564        1.23256
C         -4.38706        0.18561        1.20249
H         -4.90160        0.00466        2.14987
C         -5.06340       -0.04640       -0.00000
C         -4.38707        0.18633       -1.20238
H         -4.90163        0.00595       -2.14985
C         -3.07002        0.64637       -1.23220
C         -2.35263        0.88631       -2.52774
H         -1.98624        1.92179       -2.60727
H         -3.01525        0.69942       -3.38203
H         -1.47641        0.22566       -2.63272
C         -6.49088       -0.50323       -0.00017
H         -6.72415       -1.10243       -0.89118
H         -7.17117        0.36444       -0.00167
H         -6.72512       -1.10019        0.89207
C         -2.35258        0.88479        2.52824
H         -3.01521        0.69746        3.38242
H         -1.98612        1.92020        2.60835
H         -1.47640        0.22403        2.63283
C          0.68081        2.65128        0.00071
H          1.40065        3.46548        0.00092
C         -0.68081        2.65128        0.00072
H         -1.40065        3.46548        0.00094
Au         0.00000       -1.43437       -0.00037
