66
5u_dicl_dipp_au.log	Energy: -1388116.4649341
N          1.08260        0.00006        0.76963
N         -1.08260        0.00005        0.76963
C          0.68483        0.00017        2.09536
C         -3.05895       -1.23963        0.08002
C         -0.00000       -0.00001       -0.02499
C         -0.68483        0.00016        2.09536
C          3.05903       -1.23952        0.08005
C          2.43942        0.00006        0.30100
C         -2.43943       -0.00002        0.30101
C         -4.36906       -1.20921       -0.40446
H         -4.89384       -2.14798       -0.59438
C          4.36904        1.20917       -0.40469
H          4.89379        2.14791       -0.59478
C          4.36915       -1.20903       -0.40442
H          4.89399       -2.14777       -0.59429
C          3.05892        1.23964        0.07979
C         -3.05901        1.23954        0.07984
C          5.01467        0.00007       -0.64484
H          6.03975        0.00008       -1.02199
C         -5.01468       -0.00015       -0.64483
H         -6.03976       -0.00020       -1.02197
C         -4.36913        1.20898       -0.40462
H         -4.89396        2.14770       -0.59466
C         -2.35492       -2.55729        0.33423
H         -1.37000       -2.33856        0.77726
C          2.35488        2.55734        0.33378
H          1.36994        2.33867        0.77681
C          3.11744        3.41506        1.34284
H          2.55904        4.33745        1.56189
H          4.10553        3.71085        0.95881
H          3.27096        2.87437        2.28822
C         -3.11752       -3.41486        1.34339
H         -2.55912       -4.33721        1.56260
H         -4.10559       -3.71072        0.95937
H         -3.27108       -2.87403        2.28868
C          2.10183        3.30391       -0.97616
H          1.54472        4.23480       -0.79129
H          3.04547        3.57150       -1.47579
H          1.51478        2.69039       -1.67888
C         -2.10183       -3.30405       -0.97560
H         -3.04546       -3.57172       -1.47521
H         -1.51476       -2.69064       -1.67838
H         -1.54473       -4.23492       -0.79056
C          2.35510       -2.55722        0.33434
H          1.37016       -2.33854        0.77734
C          2.10208       -3.30411       -0.97543
H          1.51500       -2.69079       -1.67829
H          3.04573       -3.57177       -1.47500
H          1.54503       -4.23498       -0.79032
C          3.11775       -3.41466        1.34357
H          3.27127       -2.87374        2.28882
H          2.55943       -4.33704        1.56284
H          4.10586       -3.71046        0.95957
C         -2.35506        2.55727        0.33389
H         -1.37010        2.33865        0.77691
C         -3.11768        3.41487        1.34302
H         -2.55935        4.33728        1.56212
H         -4.10579        3.71062        0.95900
H         -3.27117        2.87410        2.28836
C         -2.10207        3.30395       -0.97600
H         -1.51501        2.69052       -1.67878
H         -3.04573        3.57154       -1.47559
H         -1.54500        4.23485       -0.79105
Au        -0.00000       -0.00016       -1.99484
Cl         1.77672        0.00032        3.37521
Cl        -1.77672        0.00022        3.37521
