72
5u_dime_dipp_au.log	Energy: -860945.6692517
N         -1.07711       -0.00008        0.96678
N          1.07709       -0.00021        0.96679
C         -0.68568       -0.00024        2.30081
C          3.06137        1.23730        0.28453
C         -0.00000       -0.00006        0.16842
C          0.68565       -0.00035        2.30082
C         -3.06094        1.23775        0.28379
C         -2.43343        0.00012        0.50151
C          2.43341       -0.00024        0.50153
C          4.37655        1.20773       -0.18694
H          4.90211        2.14657       -0.37396
C         -4.37667       -1.20759       -0.18709
H         -4.90232       -2.14636       -0.37422
C         -4.37614        1.20836       -0.18767
H         -4.90137        2.14728       -0.37524
C         -3.06150       -1.23733        0.28438
C          3.06105       -1.23778        0.28368
C         -5.02569        0.00048       -0.42138
H         -6.05409        0.00061       -0.78936
C          5.02568       -0.00025       -0.42135
H          6.05408       -0.00026       -0.78933
C          4.37624       -1.20822       -0.18777
H          4.90156       -2.14707       -0.37544
C          2.35055        2.55677        0.51313
H          1.39348        2.34311        1.01578
C         -2.35077       -2.55688        0.51282
H         -1.39377       -2.34336        1.01567
C         -3.14500       -3.48662        1.42893
H         -2.56888       -4.39975        1.64052
H         -4.09473       -3.79863        0.96871
H         -3.38349       -3.00435        2.38883
C          3.14461        3.48633        1.42957
H          2.56844        4.39942        1.64125
H          4.09441        3.79844        0.96957
H          3.38293        3.00388        2.38941
C         -2.02338       -3.23160       -0.82021
H         -1.46292       -4.16483       -0.65826
H         -2.94010       -3.48066       -1.37664
H         -1.41216       -2.57511       -1.46036
C          2.02335        3.23178       -0.81981
H          2.94016        3.48100       -1.37603
H          1.41227        2.57541       -1.46020
H          1.46284        4.16495       -0.65774
C         -2.34976        2.55713        0.51175
H         -1.39241        2.34339        1.01383
C         -2.02329        3.23195       -0.82146
H         -1.41275        2.57539       -1.46219
H         -2.94039        3.48132       -1.37713
H         -1.46247        4.16502       -0.65984
C         -3.14313        3.48689        1.42858
H         -3.38078        3.00462        2.38869
H         -2.56679        4.40001        1.63968
H         -4.09326        3.79891        0.96920
C          2.34996       -2.55724        0.51146
H          1.39268       -2.34366        1.01372
C          3.14351       -3.48718        1.42797
H          2.56722       -4.40035        1.63898
H          4.09357       -3.79909        0.96838
H          3.38130       -3.00509        2.38814
C          2.02333       -3.23178       -0.82185
H          1.41266       -2.57510       -1.46233
H          2.94036       -3.48096       -1.37771
H          1.46259       -4.16491       -0.66036
Au         0.00002        0.00019       -1.80211
C          1.67241       -0.00057        3.40601
H          2.32288        0.88581        3.35908
H          1.15986       -0.00070        4.37562
H          2.32279       -0.88700        3.35880
C         -1.67247       -0.00032        3.40598
H         -1.15993       -0.00041        4.37560
H         -2.32287        0.88610        3.35896
H         -2.32290       -0.88671        3.35884
