40
5u_ph_tbu_au.log	Energy: -519959.0571719
C          2.15508       -0.70658        0.00032
C          2.15527        0.70606       -0.00036
C          3.36642        1.41582       -0.00136
C          4.55017        0.69933       -0.00112
C          4.54999       -0.70042        0.00014
C          3.36607       -1.41663        0.00083
C          0.04653        0.00004        0.00028
H          3.40972        2.49696       -0.00243
H          5.49702        1.24235       -0.00195
H          5.49671       -1.24368        0.00054
H          3.40915       -2.49778        0.00178
N          0.81270       -1.10842        0.00068
N          0.81300        1.10827       -0.00014
Au        -1.95741        0.00019       -0.00027
C          0.23549        2.50890        0.00049
C          0.23470       -2.50886        0.00022
C          1.32055       -3.58031        0.00067
H          1.94644       -3.54462       -0.89994
H          1.94573       -3.54472        0.90180
H          0.81161       -4.55333        0.00037
C         -0.59138       -2.70210        1.27292
H          0.02642       -2.53602        2.16752
H         -1.45948       -2.02725        1.32862
H         -0.97436       -3.73144        1.30493
C         -0.58998       -2.70177       -1.27342
H         -1.45799       -2.02686       -1.32990
H          0.02886       -2.53542       -2.16725
H         -0.97293       -3.73110       -1.30618
C          1.32170        3.58000        0.00138
H          1.94737        3.54333        0.90213
H          1.94714        3.54500       -0.89958
H          0.81309        4.55319        0.00230
C         -0.59000        2.70155        1.27365
H         -1.45845        2.02712        1.32920
H          0.02811        2.53450        2.16785
H         -0.97246        3.73106        1.30657
C         -0.58969        2.70285       -1.27266
H          0.02842        2.53636       -2.16696
H         -1.45823        2.02856       -1.32867
H         -0.97195        3.73246       -1.30490
