54
5u_ph_mes_au.log	Energy: -760190.4436401
C         -0.70050       -2.21012       -0.00006
C          0.70053       -2.21012       -0.00009
C          1.43720       -3.39346       -0.00013
C          0.70441       -4.57416       -0.00014
C         -0.70437       -4.57416       -0.00011
C         -1.43716       -3.39347       -0.00006
C          0.00001       -0.09520       -0.00002
H          2.52833       -3.38334       -0.00017
H          1.23362       -5.52905       -0.00018
H         -1.23358       -5.52906       -0.00011
H         -2.52829       -3.38336       -0.00004
N         -1.09376       -0.87506       -0.00002
N          1.09378       -0.87505       -0.00007
C         -2.44738       -0.40617        0.00001
C         -3.08308       -0.20063        1.23212
C         -3.08312       -0.20061       -1.23203
C         -4.40567        0.24323        1.20286
C         -4.40575        0.24327       -1.20268
C         -5.08251        0.47345        0.00010
H         -4.92599        0.40727        2.15021
H         -4.92612        0.40734       -2.14998
C          2.44739       -0.40615       -0.00008
C          3.08306       -0.20050       -1.23210
C          3.08317       -0.20071        1.23205
C          4.40572        0.24339       -1.20278
C          4.40573        0.24313        1.20276
C          5.08252        0.47346       -0.00006
H          4.92605        0.40753       -2.15009
H          4.92610        0.40709        2.15009
C         -2.36522       -0.45092        2.52525
H         -1.98459       -1.48275        2.58575
H         -1.49846        0.22006        2.64234
H         -3.03142       -0.28702        3.38155
C         -2.36538       -0.45087       -2.52521
H         -1.49861        0.22009       -2.64235
H         -1.98478       -1.48271       -2.58578
H         -3.03164       -0.28692       -3.38146
C         -6.49488        0.97579        0.00028
H         -6.51238        2.07822        0.00481
H         -7.04195        0.64404       -0.89302
H         -7.04417        0.63687        0.88955
C          2.36535       -0.45111        2.52517
H          1.49854        0.21979        2.64230
H          1.98479       -1.48298        2.58562
H          3.03154       -0.28721        3.38147
C          2.36527       -0.45065       -2.52529
H          1.98449       -1.48242       -2.58586
H          1.49862        0.22046       -2.64243
H          3.03156       -0.28682       -3.38154
C          6.49488        0.97583        0.00039
H          6.51237        2.07818        0.01472
H          7.04664        0.62920        0.88518
H          7.03948        0.65193       -0.89725
Au        -0.00002        1.87229       -0.00005
