51
6s_cypentane_dIphme_au.log	Energy: -688562.3091499
C         -0.04318        0.24261        0.29885
C          1.38418        2.13029        0.89632
H          2.35578        2.44144        0.49026
H          1.45868        2.17912        1.99603
C         -1.04980        2.40201        0.85291
H         -1.16439        2.48425        1.94734
H         -1.90787        2.91230        0.39335
C          2.33560       -0.09195        0.34250
C          2.67875       -1.00151        1.34176
C          3.81214       -1.79578        1.18732
H          4.07430       -2.51042        1.97137
C          4.62456       -1.68961        0.05149
C          4.26132       -0.76186       -0.93541
H          4.87509       -0.66587       -1.83451
C          3.12956        0.03433       -0.79696
C          5.86402       -2.51943       -0.09392
H          6.04705       -2.79097       -1.14316
H          5.80584       -3.44266        0.49860
H          6.74630       -1.95856        0.25613
C         -2.43657        0.42122        0.30053
C         -3.13088        0.63152       -0.89040
C         -4.40329        0.09181       -1.04560
H         -4.94035        0.25109       -1.98396
C         -5.00627       -0.65689       -0.02465
C         -4.28860       -0.85198        1.16228
H         -4.73636       -1.43297        1.97229
C         -3.01525       -0.31506        1.33304
C         -6.39114       -1.20542       -0.18993
H         -7.14132       -0.44673        0.08787
H         -6.55911       -2.08221        0.45034
H         -6.58999       -1.49280       -1.23199
N          1.17394        0.73512        0.49289
N         -1.12885        0.98589        0.46928
C          0.25505        3.01577        0.38403
C          0.33781        3.18428       -1.14232
C          0.43634        4.45739        0.87345
C          1.43666        4.23231       -1.36281
H         -0.63262        3.56445       -1.50139
H          0.52575        2.23933       -1.67660
C          1.49020        5.06726       -0.06250
H          0.70983        4.51438        1.93856
H         -0.52618        4.98333        0.76336
H          2.40655        3.74756       -1.55487
H          1.22839        4.84722       -2.24942
H          2.49097        5.01817        0.39241
H          1.29224        6.13304       -0.24171
H         -2.66753        1.20679       -1.69558
H         -2.46739       -0.46717        2.26599
H          2.85272        0.74670       -1.57802
H          2.05899       -1.08444        2.23774
Au        -0.24808       -1.65911       -0.28589
