43
6s_cy3_tbu_au.log	Energy: -497570.4421554
C         -0.26316        0.00021        0.32900
C         -2.35589        1.22522        0.40392
H         -2.64286        2.11783       -0.16429
H         -2.77318        1.32538        1.41918
C         -2.35792       -1.22130        0.40398
H         -2.77532       -1.32068        1.41927
H         -2.64643       -2.11346       -0.16415
N         -0.88670        1.17221        0.45668
N         -0.88864       -1.17075        0.45666
Au         1.61930       -0.00133       -0.43246
C         -2.87198        0.00237       -0.27666
C         -3.00801        0.00244       -1.77471
C         -4.22906        0.00348       -0.90377
H         -2.75649       -0.91548       -2.31293
H         -2.75496        0.91993       -2.31297
H         -4.82077        0.92036       -0.83940
H         -4.82228       -0.91243       -0.83935
C         -0.18131       -2.50507        0.58139
C         -0.17717        2.50535        0.58139
C         -1.11607       -3.50258        1.28078
H         -1.99457       -3.77800        0.68474
H         -0.55253       -4.42875        1.45361
H         -1.44947       -3.13187        2.26043
C          1.05328       -2.39865        1.48010
H          1.89209       -1.84745        1.02865
H          0.80449       -1.91749        2.43736
H          1.42466       -3.41060        1.69095
C          0.16573       -3.02387       -0.81072
H          0.86186       -2.34420       -1.32992
H          0.64503       -4.01100       -0.74374
H         -0.73564       -3.12595       -1.43392
C          1.05726        2.39691        1.48008
H          0.80771        1.91611        2.43732
H          1.89518        1.84440        1.02861
H          1.43026        3.40827        1.69097
C         -1.11027        3.50440        1.28080
H         -0.54521        4.42965        1.45360
H         -1.98834        3.78125        0.68480
H         -1.44422        3.13425        2.26047
C          0.17070        3.02357       -0.81073
H          0.65164        4.00991       -0.74376
H          0.86571        2.34274       -1.32993
H         -0.73050        3.12714       -1.43392
