75
6s_cy3_dipp_au.log	Energy: -885542.6519338
C          0.00001        0.02727        0.38931
C          1.23866        0.55465        2.42932
H          2.13999        1.16856        2.56027
H          1.37285       -0.36293        3.02960
C         -1.23851        0.55495        2.42934
H         -1.37296       -0.36256        3.02967
H         -2.13966        1.16913        2.56027
C          2.40056       -0.02249        0.31232
C          2.96584       -1.30972        0.30816
C          4.18667       -1.47208       -0.35359
H          4.65642       -2.45794       -0.37963
C          4.81268       -0.39839       -0.97750
C          4.22837        0.86410       -0.95767
H          4.72943        1.69731       -1.45581
C          3.00977        1.08248       -0.31016
C         -2.40049       -0.02159        0.31209
C         -3.00872        1.08356       -0.31101
C         -4.22708        0.86569       -0.95914
H         -4.72743        1.69906       -1.45773
C         -4.81207       -0.39648       -0.97901
C         -4.18702       -1.47037       -0.35449
H         -4.65733       -2.45596       -0.38053
C         -2.96649       -1.30851        0.30792
N          1.16054        0.18473        1.01002
N         -1.16049        0.18499        1.01004
Au        -0.00006       -0.46784       -1.54889
C          0.00017        1.30055        2.83301
C          0.00037        2.80662        2.78038
C          0.00028        2.09620        4.09971
H         -0.91756        3.30986        2.46589
H          0.91845        3.30961        2.46590
H          0.91721        2.10537        4.69484
H         -0.91665        2.10561        4.69484
C         -2.37610        2.46076       -0.31081
H         -1.43510        2.39742        0.25632
C         -2.29712       -2.49496        0.97255
H         -1.34673       -2.14704        1.40783
C          2.29528       -2.49617        0.97157
H          1.34571       -2.14757        1.40811
C          2.37782        2.45998       -0.31011
H          1.43673        2.39712        0.25694
C          3.14690       -3.05419        2.11207
H          2.62255       -3.87745        2.62041
H          4.10420       -3.45080        1.74063
H          3.37817       -2.28081        2.86006
C          1.94617       -3.57687       -0.05132
H          1.31034       -3.17378       -0.85559
H          2.84899       -3.99788       -0.51930
H          1.40267       -4.40499        0.42796
C         -3.14877       -3.04994        2.11455
H         -4.10689       -3.44573        1.74435
H         -2.62527       -3.87312        2.62388
H         -3.37847       -2.27503        2.86144
C         -1.95023       -3.57773       -0.04888
H         -1.31349       -3.17702       -0.85358
H         -1.40854       -4.40637        0.43158
H         -2.85385       -3.99756       -0.51638
C         -3.26398        3.48923        0.38967
H         -2.75941        4.46619        0.44003
H         -4.21348        3.63625       -0.14744
H         -3.51341        3.17897        1.41610
C         -2.01391        2.90242       -1.72866
H         -1.34534        2.17299       -2.21362
H         -2.90835        3.00668       -2.36167
H         -1.49944        3.87525       -1.71393
C          3.26606        3.48813        0.39036
H          4.21574        3.63462       -0.14657
H          2.76193        4.46534        0.44044
H          3.51510        3.17793        1.41691
C          2.01600        2.90161       -1.72807
H          2.91063        3.00565       -2.36086
H          1.34745        2.17225       -2.21313
H          1.50169        3.87452       -1.71355
H         -5.76689       -0.54491       -1.48820
H          5.76771       -0.54722       -1.48616
