60
6s_cy4_mes_au.log	Energy: -762429.4684658
C         -0.00607        0.36390        0.18706
C          1.28191        2.34334        0.80432
H          2.17926        2.76771        0.33233
H          1.45041        2.36227        1.89489
C         -1.17517        2.37302        0.91875
H         -1.22399        2.35844        2.02149
H         -2.10134        2.83799        0.55368
C          2.38722        0.18948        0.24331
C          2.84213       -0.53167        1.35928
C          4.03585       -1.24358        1.23153
H          4.40299       -1.81152        2.09065
C          4.77147       -1.24975        0.04252
C          4.27746       -0.52356       -1.04529
H          4.83360       -0.52612       -1.98664
C          3.09105        0.20836       -0.97095
C          2.05835       -0.57453        2.63872
H          1.76385        0.42748        2.98468
H          2.64325       -1.04439        3.43959
H          1.13209       -1.16152        2.51998
C          6.07001       -1.99229       -0.05452
H          6.26698       -2.33088       -1.08120
H          6.08666       -2.86776        0.60940
H          6.90868       -1.34080        0.24182
C          2.58824        0.97501       -2.15764
H          1.53028        0.75535       -2.36871
H          3.17076        0.73062       -3.05504
H          2.67022        2.06320       -2.00287
C         -2.40236        0.30500        0.25714
C         -3.02471        0.30674       -1.00200
C         -4.24026       -0.36739       -1.12624
H         -4.73483       -0.38185       -2.10125
C         -4.83996       -1.02130       -0.04500
C         -4.18528       -0.99666        1.18961
H         -4.63538       -1.50981        2.04379
C         -2.96759       -0.33723        1.36993
C         -2.40853        1.00490       -2.17778
H         -2.38006        2.09592       -2.03034
H         -2.98355        0.81102       -3.09216
H         -1.37124        0.67955       -2.35433
C         -6.16411       -1.70655       -0.20086
H         -6.98823       -0.99558       -0.02502
H         -6.28235       -2.52835        0.51885
H         -6.29371       -2.11088       -1.21451
C         -2.30028       -0.31892        2.71398
H         -1.21293       -0.46934        2.63993
H         -2.70675       -1.10601        3.36233
H         -2.46444        0.64113        3.23035
N          1.17088        0.94884        0.36344
N         -1.14979        0.99391        0.41689
Au        -0.05826       -1.53305       -0.43924
C          0.04077        3.13892        0.44602
C          0.04293        3.64516       -1.01940
C          0.16331        4.61015        0.90362
C          0.60465        4.98948       -0.52272
H         -0.98272        3.75137       -1.40156
H          0.62540        3.07191       -1.75448
H         -0.82062        5.03096        1.16040
H          0.85351        4.81656        1.73601
H          0.17403        5.90227       -0.95529
H          1.69852        5.05234       -0.61945
