66
6s_cyhexane_dImes_au.log	Energy: -811702.5959316
C         -0.07169        0.09294        0.18287
C          1.48872        1.82658        0.89689
H          2.48224        2.08865        0.51197
H          1.56875        1.78222        1.99632
C         -0.92767        2.27731        0.85230
H         -1.07079        2.29558        1.94632
H         -1.73379        2.88092        0.41171
C          2.26152       -0.45125        0.25942
C          2.68067       -1.16097        1.39584
C          3.73851       -2.06102        1.24758
H          4.07101       -2.62790        2.12144
C          4.37794       -2.25881        0.02130
C          3.92588       -1.53237       -1.08528
H          4.40822       -1.68026       -2.05531
C          2.87351       -0.62081       -0.99391
C          2.03111       -0.96802        2.73508
H          2.43409       -0.08134        3.25162
H          2.21900       -1.83111        3.38714
H          0.94212       -0.83542        2.65545
C          5.53468       -3.20429       -0.10214
H          5.56283       -3.68178       -1.09170
H          5.49782       -3.99211        0.66279
H          6.48778       -2.66533        0.02695
C          2.41116        0.13771       -2.20245
H          1.34183       -0.03102       -2.40733
H          2.97506       -0.16796       -3.09283
H          2.54778        1.22279       -2.07886
C         -2.44877        0.40940        0.24260
C         -3.11569        0.57020       -0.98180
C         -4.42727        0.10120       -1.07326
H         -4.95906        0.21306       -2.02201
C         -5.07603       -0.50431        0.00723
C         -4.37133       -0.64925        1.20614
H         -4.85975       -1.12788        2.05924
C         -3.05796       -0.19950        1.35158
C         -2.44047        1.20288       -2.16175
H         -2.17597        2.25385       -1.96854
H         -3.09454        1.18258       -3.04266
H         -1.50598        0.68073       -2.42227
C         -6.49930       -0.96055       -0.10802
H         -6.74754       -1.25652       -1.13678
H         -7.18808       -0.14699        0.17362
H         -6.70770       -1.80959        0.55774
C         -2.31797       -0.39825        2.64224
H         -1.48250       -1.10762        2.51999
H         -2.98311       -0.80385        3.41505
H         -1.89288        0.53995        3.02976
N          1.17707        0.48568        0.39028
N         -1.10302        0.90127        0.37671
C          0.43549        2.85426        0.48565
C          0.50995        3.16358       -1.02026
C          0.63322        4.15172        1.28608
C          1.76306        3.93682       -1.41755
H         -0.37345        3.77227       -1.27948
H          0.42470        2.23606       -1.60724
C          1.88933        4.92094        0.89231
H         -0.24852        4.79317        1.11075
H          0.63838        3.92333        2.36545
C          1.91419        5.21493       -0.60244
H          1.72201        4.16545       -2.49381
H          2.66203        3.30907       -1.28151
H          1.93821        5.85620        1.47055
H          2.79038        4.34803        1.17447
H          2.84300        5.73804       -0.87644
H          1.08655        5.90289       -0.85080
Au        -0.41047       -1.77713       -0.43351
