81
6s_cypentane_dIdipp_au.log	Energy: -934811.8516797
C         -0.03112        0.03086        0.17093
C          1.42373        1.10607        1.81312
H          2.39090        1.60556        1.66341
H          1.53215        0.44980        2.69394
C         -1.02073        1.37754        1.94767
H         -1.16541        0.72681        2.82768
H         -1.86049        2.08593        1.92294
C          2.32531       -0.43683        0.09892
C          2.63021       -1.71042        0.61444
C          3.75167       -2.36409        0.09533
H          4.01784       -3.35394        0.47274
C          4.53428       -1.77471       -0.89102
C          4.21234       -0.51286       -1.37901
H          4.83391       -0.06041       -2.15481
C          3.10577        0.18707       -0.89163
C          1.80067       -2.38049        1.69204
H          0.93678       -1.73265        1.90995
C          2.75908        1.55050       -1.45092
H          1.94617        1.95897       -0.83481
C         -2.42367        0.25427        0.23211
C         -2.97343        1.07925       -0.76665
C         -4.26473        0.78177       -1.21037
H         -4.72034        1.40008       -1.98721
C         -4.97864       -0.28567       -0.67698
C         -4.40941       -1.08645        0.30694
H         -4.97910       -1.92475        0.71404
C         -3.11888       -0.83779        0.78304
C         -2.21278        2.24176       -1.36958
H         -1.23558        2.29285       -0.87021
C         -2.52020       -1.73537        1.84784
H         -1.47472       -1.42489        2.00381
N          1.18819        0.26630        0.63519
N         -1.10879        0.55571        0.73552
C          0.30233        2.11714        2.03327
C          0.40916        3.31042        1.06896
C          0.48394        2.81173        3.38998
C          1.53124        4.18380        1.64305
H         -0.54908        3.85394        1.08833
H          0.58196        3.01868        0.02272
C          1.57582        3.86450        3.15515
H          0.71962        2.10603        4.20183
H         -0.46813        3.29943        3.65685
H          2.49369        3.94782        1.16328
H          1.34819        5.24862        1.44258
H          2.56295        3.47230        3.44302
H          1.41090        4.75531        3.77676
C         -2.48787       -3.19427        1.39455
H         -1.99002       -3.82241        2.14824
H         -3.50159       -3.59669        1.24855
H         -1.94357       -3.30604        0.44417
C         -3.25401       -1.57957        3.18065
H         -2.77825       -2.19306        3.96080
H         -3.26006       -0.53337        3.52209
H         -4.30287       -1.90316        3.09659
C         -1.94616        2.01947       -2.85805
H         -1.40263        1.07569       -3.02846
H         -2.88181        1.97262       -3.43599
H         -1.33875        2.83900       -3.27141
C         -2.92217        3.57170       -1.11616
H         -3.09974        3.73671       -0.04254
H         -2.31855        4.41019       -1.49559
H         -3.89912        3.61206       -1.62187
C          2.22563        1.43636       -2.87931
H          2.98800        1.02650       -3.55974
H          1.34679        0.77235       -2.92383
H          1.92464        2.42243       -3.26506
C          3.93078        2.52677       -1.36257
H          3.61820        3.53169       -1.68422
H          4.31777        2.60129       -0.33498
H          4.76679        2.22173       -2.01023
C          1.24342       -3.72089        1.21527
H          0.59527       -4.16708        1.98403
H          0.64843       -3.60190        0.29610
H          2.04731       -4.44125        1.00130
C          2.59736       -2.53464        2.98850
H          3.46196       -3.20136        2.84830
H          2.98291       -1.56771        3.34566
H          1.96885       -2.96813        3.78118
H          5.40603       -2.30371       -1.28235
H         -5.98922       -0.49717       -1.03325
Au        -0.25213       -1.15671       -1.42223
