39
6s_dih_dIterbutyl_au.log	Energy: -449094.1864969
C         -1.22669        2.63021       -0.32074
C          1.22541        2.63105       -0.31813
C         -0.00001        0.57537        0.08257
H         -2.12214        2.77762       -0.93585
H          1.32886        3.26225        0.57863
N          1.17110        1.21386        0.06098
N         -1.17126        1.21367        0.06078
H          2.12210        2.78086       -0.93071
H         -1.33340        3.26261        0.57476
C          0.00005        3.00542       -1.10575
H         -0.00016        4.08472       -1.31109
H          0.00138        2.48435       -2.07705
C         -2.50408        0.54890        0.35042
C         -3.01865       -0.12652       -0.91705
H         -2.33573       -0.92453       -1.25353
H         -4.00299       -0.58117       -0.73553
H         -3.12567        0.59744       -1.73898
C         -3.51058        1.61675        0.80282
H         -4.43228        1.10279        1.10541
H         -3.14689        2.17944        1.67426
H         -3.79218        2.32287        0.01230
C          2.50412        0.54914        0.35019
C          2.39121       -0.42972        1.52179
H          3.40070       -0.75023        1.81256
H          1.91891        0.04917        2.39208
H          1.82843       -1.34671        1.28980
C          3.01784       -0.12747       -0.91699
H          3.12406        0.59575       -1.73966
H          4.00242       -0.58172       -0.73572
H          2.33496       -0.92604       -1.25228
C         -2.39077       -0.43115        1.52099
H         -1.91591        0.04600        2.39085
H         -3.40034       -0.74995        1.81338
H         -1.83041       -1.34908        1.28713
C          3.51137        1.61704        0.80078
H          4.43268        1.10287        1.10422
H          3.79354        2.32153        0.00899
H          3.14825        2.18155        1.67127
Au         0.00010       -1.43404       -0.21472
