95
6s_dinbu_dIdipp_au.log	Energy: -1034055.4994754
C         -0.00013        1.29812        1.93261
C         -0.00024       -0.00001        2.76950
C         -0.00027       -1.29813        1.93260
C          0.00003        0.00000       -0.15799
H          0.87757        1.91148        2.18473
H         -0.87807       -1.91143        2.18452
N         -0.00014       -1.15707        0.47781
N          0.00007        1.15707        0.47782
H          0.87741       -1.91155        2.18466
H         -0.87791        1.91147        2.18448
C         -0.00020       -2.39302       -0.25997
C          1.23474       -2.98017       -0.59075
C         -1.23521       -2.97996       -0.59090
C          1.20583       -4.20060       -1.27114
C         -1.20643       -4.20039       -1.27129
C         -0.00033       -4.80773       -1.60407
H          2.14596       -4.68420       -1.54622
H         -2.14661       -4.68382       -1.54648
C          0.00022        2.39302       -0.25995
C         -1.23468        2.98015       -0.59091
C          1.23527        2.98000       -0.59068
C         -1.20570        4.20059       -1.27128
C          1.20656        4.20043       -1.27107
C          0.00050        4.80775       -1.60402
H         -2.14580        4.68417       -1.54649
H          2.14677        4.68389       -1.54611
C         -2.56064       -2.32419       -0.26041
H         -2.34646       -1.37555        0.25520
C          2.56025       -2.32464       -0.26010
H          2.34618       -1.37590        0.25537
C          2.56066        2.32425       -0.26000
H          2.34643        1.37559        0.25555
C         -2.56023        2.32459       -0.26046
H         -2.34621        1.37585        0.25504
C         -1.24548        0.00007        3.68319
H         -1.17853       -0.87787        4.34885
H         -1.17848        0.87809        4.34874
C          1.24491       -0.00011        3.68332
H          1.17789        0.87782        4.34899
H          1.17784       -0.87814        4.34884
C         -2.59875        0.00007        2.98991
H         -2.69041       -0.87979        2.33021
H         -2.69021        0.87967        2.32982
C          2.59825       -0.00009        2.99017
H          2.68998        0.87982        2.33054
H          2.68975       -0.87965        2.33005
C         -3.77296        0.00042        3.96078
H         -3.69604       -0.87918        4.62310
H         -3.69588        0.88033        4.62267
C         -5.12131        0.00037        3.26011
H         -5.95160        0.00063        3.98087
H         -5.23992        0.88887        2.61912
H         -5.24009       -0.88845        2.61958
C          3.77236       -0.00051        3.96116
H          3.69538        0.87905        4.62353
H          3.69521       -0.88046        4.62298
C          5.12078       -0.00042        3.26063
H          5.23944       -0.88888        2.61959
H          5.23963        0.88843        2.62016
H          5.95100       -0.00074        3.98146
C          3.33648       -1.97482       -1.52945
H          3.61339       -2.87624       -2.09708
H          2.74041       -1.33099       -2.19580
H          4.26466       -1.43815       -1.28112
C          3.39500       -3.18477        0.68838
H          2.84507       -3.42318        1.61155
H          3.68146       -4.13892        0.22029
H          4.32197       -2.66205        0.96907
C         -3.33656       -1.97408       -1.52986
H         -2.74024       -1.33030       -2.19604
H         -3.61354       -2.87538       -2.09764
H         -4.26468       -1.43725       -1.28166
C         -3.39573       -3.18424        0.68783
H         -3.68235       -4.13827        0.21958
H         -2.84602       -3.42289        1.61107
H         -4.32264       -2.66134        0.96843
C         -3.33625        1.97475       -1.52993
H         -4.26445        1.43806       -1.28175
H         -3.61310        2.87617       -2.09760
H         -2.74006        1.33094       -2.19620
C         -3.39514        3.18469        0.68788
H         -4.32215        2.66195        0.96844
H         -2.84537        3.42313        1.61115
H         -3.68157        4.13883        0.21975
C          3.33680        1.97419       -1.52934
H          2.74060        1.33040       -2.19562
H          3.61384        2.87552       -2.09706
H          4.26489        1.43739       -1.28099
C          3.39558        3.18430        0.68839
H          2.84571        3.42291        1.61155
H          4.32245        2.66143        0.96913
H          3.68223        4.13836        0.22021
H          0.00061        5.76376       -2.13223
H         -0.00038       -5.76374       -2.13229
Au         0.00022        0.00001       -2.16009
