71
6s_dih_dIdipp_au.log	Energy: -837065.7471871
C          0.00024       -0.04271        0.56941
C         -1.24090       -0.15221        2.67224
H         -2.14631       -0.72368        2.91834
H         -1.37724        0.86588        3.07595
C          0.00066       -0.81187        3.23176
H          0.00174       -1.88281        2.97240
H          0.00046       -0.74389        4.32836
C          1.24104       -0.14974        2.67253
H          1.37527        0.86864        3.07620
H          2.14757       -0.71936        2.91884
C         -2.40044       -0.00333        0.48483
C         -2.94313        1.26137        0.19624
C         -4.16021        1.29536       -0.49096
H         -4.61307        2.25928       -0.73371
C         -4.80455        0.12195       -0.86724
C         -4.24504       -1.11516       -0.56414
H         -4.76185       -2.02854       -0.86726
C         -3.03201       -1.20702        0.12297
C         -2.26070        2.55348        0.59901
H         -1.30142        2.29540        1.07548
C         -2.42807       -2.56308        0.42974
H         -1.51233       -2.39834        1.01909
C          2.40091        0.00180        0.48564
C          3.03740       -1.20052        0.12790
C          4.25045       -1.10610       -0.55879
H          4.77095       -2.01839       -0.85884
C          4.80529        0.13224       -0.86549
C          4.15612        1.30428       -0.49333
H          4.60527        2.26924       -0.73889
C          2.93881        1.26769        0.19334
C          2.43793       -2.55786        0.43783
H          1.52336       -2.39497        1.02951
C          2.25097        2.55850        0.59090
H          1.29351        2.29830        1.06989
N         -1.16025       -0.07366        1.21052
N          1.16060       -0.07140        1.21080
H          5.75654        0.18414       -1.39970
H         -5.75570        0.17182       -1.40183
C         -3.36642       -3.42555        1.27332
H         -2.88189       -4.37728        1.53866
H         -3.65629       -2.91762        2.20563
H         -4.29129       -3.66828        0.72828
C         -2.01023       -3.27803       -0.85565
H         -2.87958       -3.49280       -1.49583
H         -1.30770       -2.66471       -1.44249
H         -1.51669       -4.23503       -0.62798
C         -3.09207        3.32212        1.62702
H         -4.05826        3.63743        1.20412
H         -3.30620        2.70890        2.51542
H         -2.56175        4.22890        1.95523
C         -1.93643        3.41709       -0.61920
H         -1.31760        2.86707       -1.34575
H         -2.84963        3.74408       -1.13911
H         -1.38469        4.32041       -0.31874
C          1.92124        3.41431       -0.63137
H          1.36521        4.31640       -0.33521
H          2.83230        3.74298       -1.15395
H          1.30449        2.85729       -1.35448
C          3.07990        3.33623        1.61400
H          2.54557        4.24202        1.93841
H          3.29802        2.72844        2.50515
H          4.04400        3.65423        1.18840
C          3.38061       -3.41747        1.27948
H          4.30376       -3.66003        0.73145
H          3.67325       -2.90760        2.20988
H          2.89833       -4.36936        1.54822
C          2.01821       -3.27484       -0.84587
H          1.31174       -2.66419       -1.43072
H          2.88626       -3.48702       -1.48868
H          1.52860       -4.23337       -0.61610
Au         0.00017        0.05388       -1.42848
