77
6s_dime_dIdipp_au.log	Energy: -886316.5652416
C          1.23453       -0.16123        2.45938
C          0.00059       -0.81143        3.08195
C         -1.23314       -0.16080        2.45932
C          0.00023       -0.05037        0.35509
H          2.14206       -0.72623        2.71586
H         -1.36689        0.86539        2.84297
C          0.00029       -2.32144        2.84055
H          0.88964       -2.78632        3.29094
H         -0.88887       -2.78607        3.29157
H         -0.00016       -2.57412        1.77126
C          0.00057       -0.52822        4.58285
H         -0.88677       -0.96843        5.06178
H          0.88804       -0.96819        5.06177
H          0.00043        0.55243        4.79299
N         -1.15851       -0.10335        0.99642
N          1.15895       -0.10108        0.99660
H         -2.14109       -0.72427        2.71743
H          1.37006        0.86420        2.84447
C         -2.40020        0.05529        0.28273
C         -3.06763       -1.09044       -0.18809
C         -2.91226        1.35513        0.11259
C         -4.28530       -0.90316       -0.84769
C         -4.13695        1.48422       -0.54868
C         -4.81849        0.36896       -1.02281
H         -4.82657       -1.77162       -1.22986
H         -4.56466        2.47841       -0.69608
C          2.40017        0.06271        0.28333
C          2.90527        1.36479        0.10969
C          3.07448       -1.08093       -0.18266
C          4.12964        1.49838       -0.55133
C          4.29158       -0.88921       -0.84198
C          4.81761        0.38532       -1.02132
H          4.55201        2.49439       -0.70174
H          4.83811       -1.75594       -1.22058
C         -2.18926        2.59285        0.60639
H         -1.21677        2.27781        1.01713
C         -2.50133       -2.48508       -0.02469
H         -1.56770       -2.39553        0.54671
C          2.51564       -2.47795       -0.01401
H          1.58271       -2.39164        0.55908
C          2.17515        2.60039        0.59833
H          1.20673        2.28101        1.01529
C          2.95139        3.29961        1.71524
H          3.92109        3.67320        1.35211
H          2.38638        4.16210        2.10012
H          3.15632        2.61976        2.55608
C          1.86911        3.55720       -0.55318
H          1.28415        4.41794       -0.19653
H          2.79017        3.95027       -1.00926
H          1.29088        3.05724       -1.34570
C          3.45906       -3.37480        0.78655
H          3.70048       -2.93440        1.76589
H          3.00095       -4.36058        0.95872
H          4.40890       -3.54102        0.25565
C          2.15725       -3.09666       -1.36511
H          1.44209       -2.46323       -1.91537
H          3.04664       -3.22352       -2.00124
H          1.69752       -4.08764       -1.23059
C         -2.14267       -3.09850       -1.37808
H         -3.03281       -3.22959       -2.01229
H         -1.43293       -2.45934       -1.92878
H         -1.67633       -4.08684       -1.24695
C         -3.43844       -3.38897        0.77542
H         -2.97501       -4.37289        0.94390
H         -3.68011       -2.95246        1.75644
H         -4.38856       -3.55836        0.24602
C         -1.89486        3.56007       -0.53940
H         -1.31705        3.06991       -1.33823
H         -2.82043        3.95083       -0.98825
H         -1.31397        4.42196       -0.17884
C         -2.96669        3.27809        1.73125
H         -3.94072        3.64625        1.37420
H         -3.16329        2.59083        2.56804
H         -2.40719        4.14239        2.12015
H          5.77345        0.51291       -1.53417
H         -5.77469        0.49295       -1.53584
Au         0.00049        0.11094       -1.63769
