87
6s_dinbu_dIad_au.log	Energy: -937098.2694781
C          1.38155        1.91856        0.46777
C          0.06084        2.60584        0.75530
C         -0.86816        2.16875       -0.36748
C          0.03123       -0.01029       -0.22090
H          1.98386        1.85819        1.38625
H         -0.43451        2.43511       -1.34600
N         -1.07375        0.72317       -0.32620
N          1.23271        0.55342       -0.06659
H         -1.82576        2.68244       -0.27902
H          1.95097        2.51135       -0.25823
C          0.25482        4.13515        0.70294
H         -0.65078        4.60077        1.12869
H          1.06862        4.38872        1.40543
C         -0.51434        2.26277        2.15292
H         -0.13140        3.02400        2.85398
H         -1.60603        2.43019        2.12057
C          0.54356        4.77610       -0.64863
H         -0.33122        4.67764       -1.31454
H          1.37258        4.25493       -1.16197
C         -0.23449        0.90264        2.78347
H          0.85411        0.74083        2.86845
H         -0.61346        0.08193        2.15776
C          0.89832        6.25376       -0.52922
H          0.08193        6.77836       -0.00286
H          1.78623        6.35970        0.11843
C          1.15658        6.91916       -1.87051
H          1.41291        7.98163       -1.74944
H          1.99061        6.43611       -2.40444
H          0.27064        6.86473       -2.52302
C         -0.85493        0.76544        4.16775
H         -0.47264        1.56734        4.82290
H         -1.94377        0.93714        4.09411
C         -0.59188       -0.59035        4.80149
H         -1.00222       -1.40650        4.18408
H          0.48801       -0.77526        4.91827
H         -1.04986       -0.66844        5.79811
C          2.52613       -0.21067       -0.24898
C          2.51111       -1.00575       -1.56598
C          3.71986        0.76334       -0.35687
C          2.78572       -1.12732        0.95417
H          2.36537       -0.30395       -2.40429
H          1.66198       -1.70873       -1.59945
C          3.80765       -1.80049       -1.73390
H          3.81073        1.37742        0.54946
H          3.57244        1.44489       -1.21019
C          5.03360       -0.00907       -0.53781
H          1.94046       -1.82911        1.09036
H          2.83584       -0.51986        1.87338
C          4.08232       -1.91508        0.75497
H          3.73734       -2.39197       -2.66040
C          4.98579       -0.83256       -1.82221
C          3.98793       -2.73541       -0.53434
H          5.85126        0.72650       -0.59420
C          5.25288       -0.93455        0.65960
H          4.22619       -2.58675        1.61606
H          4.87290       -0.17438       -2.69932
H          5.92917       -1.38554       -1.95610
H          3.14274       -3.44455       -0.47345
H          4.89749       -3.34325       -0.66266
H          6.20130       -1.48315        0.54503
H          5.33432       -0.34855        1.59009
C         -2.46269        0.15005       -0.50945
C         -2.89380       -0.67240        0.71553
C         -3.50407        1.27394       -0.66998
C         -2.51584       -0.69180       -1.79550
H         -2.89416       -0.02346        1.60658
H         -2.16673       -1.48081        0.91748
C         -4.27837       -1.28433        0.49245
H         -3.25014        1.91269       -1.53052
H         -3.52294        1.90841        0.23074
C         -4.90741        0.68847       -0.88106
H         -1.76796       -1.50354       -1.76317
H         -2.24479       -0.05210       -2.65188
C         -3.90664       -1.29941       -1.98577
H         -4.53620       -1.89903        1.36935
C         -5.30037       -0.15924        0.32766
C         -4.25749       -2.15586       -0.76602
H         -5.60905        1.53005       -0.99133
C         -4.92795       -0.17292       -2.14249
H         -3.89702       -1.92575       -2.89173
H         -5.33492        0.46007        1.23923
H         -6.31010       -0.57632        0.18651
H         -3.52315       -2.97348       -0.65131
H         -5.23887       -2.63491       -0.90961
H         -5.93607       -0.58766       -2.30138
H         -4.68938        0.43589       -3.03008
Au        -0.12378       -2.04019       -0.11639
