83
6s_diet_dIdipp_au.log	Energy: -935558.2725678
C          1.29748        0.00014        2.28118
C          0.00001        0.00010        3.11855
C         -1.29747        0.00014        2.28119
C          0.00000       -0.00005        0.18994
H          1.91144       -0.87743        2.53335
H         -1.91128        0.87785        2.53319
N         -1.15698       -0.00000        0.82617
N          1.15698       -0.00001        0.82617
H         -1.91143       -0.87743        2.53336
H          1.91129        0.87785        2.53319
C         -2.39318        0.00003        0.08831
C         -2.98017       -1.23481       -0.24296
C         -2.98004        1.23490       -0.24306
C         -4.20033       -1.20599       -0.92381
C         -4.20021        1.20615       -0.92390
C         -4.80745        0.00010       -1.25687
H         -4.68377       -2.14611       -1.19911
H         -4.68356        2.14630       -1.19927
C          2.39318        0.00002        0.08831
C          2.98005        1.23490       -0.24307
C          2.98017       -1.23482       -0.24297
C          4.20022        1.20613       -0.92390
C          4.20033       -1.20600       -0.92381
C          4.80746        0.00008       -1.25687
H          4.68357        2.14629       -1.19927
H          4.68377       -2.14612       -1.19911
C         -2.32450        2.56050        0.08682
H         -1.37655        2.34643        0.60394
C         -2.32477       -2.56045        0.08704
H         -1.37680       -2.34642        0.60414
C          2.32476       -2.56045        0.08703
H          1.37680       -2.34642        0.60414
C          2.32451        2.56050        0.08681
H          1.37657        2.34643        0.60393
C          0.00001        1.24262        4.03807
H         -0.87729        1.16743        4.70243
H          0.87731        1.16743        4.70243
C          0.00001       -1.24247        4.03800
H          0.87731       -1.16732        4.70237
H         -0.87729       -1.16731        4.70237
C          0.00001        2.59821        3.35345
H         -0.88878        2.75120        2.72295
H          0.00001        3.40278        4.10244
H          0.88879        2.75120        2.72295
C          0.00001       -2.59802        3.35331
H          0.88879       -2.75097        2.72280
H          0.00000       -3.40264        4.10225
H         -0.88878       -2.75097        2.72280
C         -1.97287       -3.33404       -1.18347
H         -2.87366       -3.60903       -1.75299
H         -1.32791       -2.73662       -1.84753
H         -1.43714       -4.26319       -0.93691
C         -3.18707       -3.39688        1.03226
H         -3.43123       -2.84685        1.95393
H         -4.13888       -3.68441        0.56003
H         -2.66500       -4.32351        1.31516
C         -1.97253        3.33393       -1.18377
H         -1.32763        2.73637       -1.84777
H         -2.87329        3.60895       -1.75331
H         -1.43670        4.26304       -0.93731
C         -3.18672        3.39712        1.03195
H         -4.13849        3.68470        0.55969
H         -3.43093        2.84721        1.95368
H         -2.66455        4.32373        1.31476
C          3.18673        3.39711        1.03194
H          4.13850        3.68469        0.55968
H          2.66457        4.32372        1.31475
H          3.43094        2.84721        1.95367
C          1.97254        3.33392       -1.18377
H          1.43671        4.26304       -0.93732
H          2.87331        3.60895       -1.75332
H          1.32765        2.73636       -1.84778
C          1.97285       -3.33403       -1.18348
H          2.87363       -3.60902       -1.75302
H          1.43711       -4.26318       -0.93693
H          1.32788       -2.73659       -1.84753
C          3.18707       -3.39690        1.03224
H          3.43124       -2.84687        1.95391
H          2.66499       -4.32353        1.31514
H          4.13886       -3.68443        0.56000
H          5.76330        0.00011       -1.78538
H         -5.76329        0.00013       -1.78537
Au        -0.00001       -0.00016       -1.81216
