75
6s_diet_dIad_au.log	Energy: -838600.3125636
C          1.12117        2.40699        0.23830
C         -0.25988        2.94908        0.55342
C         -1.19938        2.23076       -0.39965
C          0.02099        0.22777       -0.05076
H          1.79041        2.56656        1.09869
H         -0.90618        2.43775       -1.44152
N         -1.17866        0.78265       -0.18935
N          1.13522        0.97150       -0.08423
H         -2.22156        2.59730       -0.26648
H          1.54429        2.95778       -0.61035
C         -0.29218        4.46601        0.26021
H         -1.22077        4.86820        0.69916
H          0.52579        4.92599        0.84056
C         -0.64351        2.78153        2.04296
H         -0.15108        3.61131        2.57748
H         -1.72434        2.98097        2.13830
C         -0.19661        4.91223       -1.19103
H         -1.08607        4.63809       -1.77772
H         -0.11011        6.00702       -1.24083
H          0.68566        4.50195       -1.70791
C         -0.29535        1.49658        2.78261
H          0.77433        1.24882        2.70649
H         -0.51672        1.61886        3.85283
H         -0.86597        0.62630        2.43370
C          2.51309        0.37572       -0.27368
C          2.51193       -0.66893       -1.40334
C          3.51125        1.47057       -0.71191
C          3.03352       -0.22692        1.03783
H          2.16973       -0.18663       -2.33437
H          1.79841       -1.48372       -1.19660
C          3.90351       -1.28009       -1.57984
H          3.58260        2.26428        0.04415
H          3.16929        1.93275       -1.65241
C          4.91380        0.87955       -0.90610
H          2.33374       -1.00428        1.40258
H          3.06587        0.55442        1.81593
C          4.42153       -0.83806        0.83184
H          3.84788       -2.05362       -2.36198
C          4.88747       -0.18867       -1.99579
C          4.35042       -1.91094       -0.25792
H          5.58695        1.69978       -1.20101
C          5.39498        0.26415        0.40852
H          4.75606       -1.28872        1.77959
H          4.58392        0.25068       -2.96021
H          5.89421       -0.61229       -2.13962
H          3.64811       -2.71027        0.03968
H          5.33486       -2.38936       -0.38139
H          6.40807       -0.15023        0.28396
H          5.46094        1.03537        1.19386
C         -2.53464        0.12798       -0.31104
C         -2.53333       -1.40080       -0.28013
C         -3.44371        0.61397        0.83239
C         -3.12825        0.54633       -1.67441
H         -2.15092       -1.76206        0.69367
H         -1.88993       -1.80075       -1.08149
C         -3.95492       -1.95981       -0.44877
H         -3.48009        1.71293        0.86759
H         -3.02536        0.27617        1.79456
C         -4.86628        0.07442        0.65000
H         -2.47519        0.16561       -2.47776
H         -3.15578        1.64023       -1.77231
C         -4.55282        0.00827       -1.83272
H         -3.88879       -3.05872       -0.41199
C         -4.83948       -1.45279        0.68915
C         -4.52797       -1.51736       -1.79326
H         -5.49262        0.45947        1.46988
C         -5.42533        0.54609       -0.69509
H         -4.94802        0.35338       -2.80102
H         -4.45573       -1.80449        1.66163
H         -5.85874       -1.85706        0.58426
H         -3.91684       -1.91244       -2.62170
H         -5.54367       -1.92352       -1.92321
H         -6.46201        0.19403       -0.81615
H         -5.46007        1.64811       -0.72913
Au         0.21531       -1.71717        0.51535
