63
6s_dih_dIad_au.log	Energy: -740106.1212143
C         -1.22527        2.89110       -0.28280
C          1.22588        2.89088       -0.28508
H         -2.11877        3.15021       -0.85792
H          1.32580        3.36570        0.70443
N          1.17584        1.43168       -0.13929
N         -1.17582        1.43171       -0.13889
H          2.11829        3.14866       -0.86255
H         -1.32256        3.36487        0.70749
C         -2.49540        0.71494        0.08869
C         -2.40566       -0.17459        1.34136
C         -3.62962        1.72738        0.35934
C         -2.90596       -0.09591       -1.14747
H         -2.15612        0.45756        2.21011
H         -1.58861       -0.90987        1.24805
C         -3.71823       -0.92545        1.57019
H         -3.78165        2.38792       -0.50624
H         -3.37970        2.35997        1.22536
C         -4.95651        0.99882        0.61664
H         -2.11522       -0.82471       -1.41265
H         -3.00422        0.58211       -2.01197
C         -4.21611       -0.84310       -0.88557
H         -3.59657       -1.58636        2.44286
C         -4.83333        0.08483        1.83292
C         -4.04728       -1.75999        0.32904
H         -5.72782        1.76345        0.79856
C         -5.32812        0.17189       -0.61423
H         -4.46570       -1.44233       -1.77534
H         -4.60860        0.67279        2.73796
H         -5.78788       -0.43326        2.01703
H         -3.24517       -2.49693        0.14222
H         -4.96967       -2.33826        0.49595
H         -6.28518       -0.34732       -0.44738
H         -5.46890        0.82583       -1.49064
C          2.49537        0.71491        0.08856
C          2.90603       -0.09606       -1.14748
C          3.62955        1.72738        0.35934
C          2.40550       -0.17450        1.34131
H          3.00434        0.58184       -2.01205
H          2.11531       -0.82495       -1.41259
C          4.21617       -0.84321       -0.88538
H          3.37947        2.35996        1.22532
H          3.78169        2.38794       -0.50618
C          4.95641        0.99883        0.61679
H          1.58847       -0.90979        1.24802
H          2.15589        0.45775        2.20998
C          3.71805       -0.92536        1.57033
H          4.46587       -1.44250       -1.77507
C          5.32812        0.17184       -0.61401
C          4.04722       -1.76000        0.32928
H          5.72770        1.76347        0.79873
C          4.83313        0.08491        1.83312
H          3.59627       -1.58621        2.44304
H          5.46897        0.82573       -1.49044
H          6.28519       -0.34734       -0.44704
H          3.24513       -2.49696        0.14243
H          4.96959       -2.33826        0.49634
H          5.78765       -0.43318        2.01733
H          4.60832        0.67292        2.73810
C         -0.00030        3.38565       -0.99892
H         -0.00016        4.48402       -1.02886
H         -0.00140        3.02691       -2.04108
C         -0.00000        0.79937       -0.16506
Au         0.00003       -1.22168       -0.47506
