51
6s_diet_dIterbutyl_au.log	Energy: -547589.7107128
C         -2.08427        1.29761        0.09192
C         -2.73039       -0.02957        0.43756
C         -2.12724       -1.04983       -0.51399
C         -0.02045        0.01656       -0.24874
H         -2.17850        1.99175        0.94155
H         -2.35699       -0.77928       -1.55834
N         -0.67545       -1.13620       -0.35998
N         -0.65510        1.19174       -0.24446
H         -2.57113       -2.02809       -0.32176
H         -2.60826        1.75036       -0.75877
C         -4.25279        0.06517        0.18841
H         -4.71842       -0.82272        0.64823
H         -4.62357        0.92307        0.77490
C         -2.54897       -0.41650        1.92584
H         -3.34384        0.11076        2.47948
H         -2.79359       -1.48822        2.02583
C         -4.73396        0.18853       -1.24956
H         -4.55835       -0.72601       -1.83526
H         -5.81801        0.37025       -1.26597
H         -4.26586        1.02797       -1.78831
C         -1.23419       -0.12417        2.63654
H         -0.95340        0.93764        2.57106
H         -1.33785       -0.35603        3.70647
H         -0.39199       -0.71835        2.26054
C          0.00253       -2.49044       -0.50224
C          0.05639        2.52037       -0.42805
C          0.70904        2.94141        0.88655
H          1.45297        2.20370        1.23140
H          1.22667        3.90299        0.76155
H         -0.04072        3.06248        1.68251
C         -0.95785        3.59741       -0.83688
H         -1.47431        3.34341       -1.77361
H         -1.70281        3.81671       -0.06235
H         -0.40121        4.52726       -1.01295
C          0.97452       -2.45510       -1.68472
H          1.41329       -3.45196       -1.82905
H          0.44994       -2.17295       -2.60951
H          1.80894       -1.75171       -1.54224
C          0.68470       -2.89175        0.80492
H         -0.04484       -2.95996        1.62474
H          1.15918       -3.87612        0.68644
H          1.47251       -2.18315        1.10976
C         -1.03043       -3.57552       -0.82039
H         -0.48168       -4.51318       -0.98093
H         -1.73101       -3.75771        0.00655
H         -1.59514       -3.36945       -1.74020
C          1.06262        2.44461       -1.57966
H          1.42976        3.45616       -1.80041
H          1.94774        1.82835       -1.36105
H          0.58739        2.04594       -2.48806
Au         1.97141       -0.01222        0.14941
