56
7s_dImes_au.log	Energy: -713944.2235912
N          1.16760        1.35537        0.11954
N         -1.15475        1.24405        0.45176
C          0.01460        0.69468        0.14486
C          1.34269        2.82291        0.03695
H          2.27162        2.96291       -0.53104
H          1.53919        3.22572        1.04468
C          0.20125        3.54681       -0.65220
H         -0.05268        2.99426       -1.57066
H          0.57151        4.52750       -0.98551
C         -1.03417        3.72760        0.22685
H         -0.93188        4.62294        0.86061
H         -1.92447        3.89438       -0.39809
C         -1.24588        2.53892        1.14481
H         -0.49954        2.52942        1.95470
H         -2.23360        2.57561        1.62046
C          2.39040        0.59225        0.10365
C          2.92154        0.14457        1.32203
C          4.11539       -0.57799        1.28323
H          4.54412       -0.93549        2.22328
C          4.77550       -0.85339        0.08182
C          4.20636       -0.39094       -1.10947
H          4.70401       -0.60661       -2.05888
C          3.01759        0.33985       -1.12758
C          2.22178        0.41333        2.62223
H          1.99860        1.48293        2.75717
H          2.83762        0.09254        3.47199
H          1.26426       -0.12987        2.68438
C          6.07558       -1.59959        0.07214
H          6.92288       -0.89714        0.13735
H          6.20300       -2.17858       -0.85318
H          6.15464       -2.28689        0.92578
C          2.42309        0.81526       -2.42062
H          1.35972        0.53980       -2.50529
H          2.95369        0.38055       -3.27731
H          2.48147        1.91102       -2.52425
C         -2.36721        0.49467        0.24706
C         -2.94699        0.45211       -1.03088
C         -4.12477       -0.28162       -1.18528
H         -4.58796       -0.32628       -2.17459
C         -4.72681       -0.95508       -0.11831
C         -4.11001       -0.89344        1.13485
H         -4.55691       -1.42694        1.97816
C         -2.93204       -0.17538        1.34574
C         -2.33036        1.15907       -2.20241
H         -1.30068        0.81615       -2.39292
H         -2.28867        2.24753       -2.04483
H         -2.91312        0.97947       -3.11470
C         -6.01250       -1.70222       -0.30683
H         -6.87342       -1.04116       -0.11337
H         -6.09212       -2.55192        0.38550
H         -6.11502       -2.07968       -1.33369
C         -2.28794       -0.14112        2.70056
H         -2.71584       -0.91134        3.35499
H         -2.43623        0.82903        3.20183
H         -1.20181       -0.31184        2.64055
Au         0.04184       -1.26774       -0.26888
