66
7s_dIad_au.log	Energy: -764723.8001627
N          1.16830        0.98416       -0.01219
N         -1.16910        0.90903        0.14701
C          0.01176        0.32107       -0.00859
C          1.31625        2.37451       -0.48764
H          2.18601        2.36286       -1.15231
H          1.58030        3.01984        0.36595
C          0.13192        2.94760       -1.24293
H         -0.20147        2.22527       -2.00577
H          0.48695        3.82736       -1.79938
C         -1.01700        3.33296       -0.32214
H         -0.80327        4.28420        0.19088
H         -1.93939        3.48846       -0.90059
C         -1.20575        2.25490        0.72877
H         -0.39946        2.30050        1.47651
H         -2.14459        2.36552        1.27675
C          2.40598        0.24800        0.34726
C          3.37374        0.98599        1.29146
H          2.02610       -0.59618        0.93978
C          3.19733       -0.35952       -0.82435
C          4.30752        1.97776        0.58106
H          2.79638        1.49133        2.08389
C          4.24815       -0.11675        1.91486
C          4.07098       -1.46174       -0.20310
C          4.11572        0.64363       -1.53280
H          2.48903       -0.80641       -1.54445
H          5.00834        2.38484        1.32770
H          3.77053        2.84573        0.17471
C          5.08990        1.26239       -0.52448
H          3.62153       -0.82779        2.47913
H          4.94444        0.33478        2.63913
C          5.03440       -0.84469        0.81724
H          4.63867       -1.97445       -0.99594
H          3.43444       -2.22454        0.27862
H          3.54444        1.42341       -2.06148
H          4.67811        0.11125       -2.31693
H          5.74001        1.98658       -1.04004
C          5.94439        0.15531        0.09883
H          5.64285       -1.64147        1.27341
H          6.66720        0.58996        0.80825
H          6.53172       -0.35719       -0.68047
C         -2.41624        0.18283       -0.17669
C         -3.47429        0.96174       -0.97933
H         -2.07320       -0.61436       -0.85254
C         -3.08580       -0.50723        1.02360
C         -4.32789        1.90946       -0.12404
H         -2.98239        1.50927       -1.80025
C         -4.41083       -0.10813       -1.56853
C         -4.02404       -1.57108        0.43424
C         -3.91250        0.45760        1.88093
H         -2.30576       -0.99402        1.63442
H         -5.10489        2.35083       -0.76897
H         -3.75209        2.76190        0.26449
C         -4.98700        1.13167        1.01952
H         -3.84626       -0.78776       -2.22902
H         -5.17266        0.38121       -2.19576
C         -5.08626       -0.89555       -0.43928
H         -4.50558       -2.13138        1.25151
H         -3.44546       -2.30249       -0.15646
H         -3.27636        1.20585        2.38027
H         -4.38963       -0.11257        2.69427
H         -5.57490        1.82431        1.64201
C         -5.90862        0.06121        0.42846
H         -5.74507       -1.66324       -0.87486
H         -6.70110        0.53531       -0.17313
H         -6.41189       -0.49611        1.23531
Au         0.05877       -1.68857       -0.21021
