49
CAAC_ad_au.log	Energy: -559926.1421404
C          2.40568        1.32100        0.06057
C          1.82798        2.71190        0.34065
C          0.32357        2.66049        0.03281
H          1.96904        2.95186        1.40462
H          2.32310        3.50154       -0.24069
N          0.05419        1.15173        0.13255
C          3.40237        0.89125        1.13885
H          3.80816       -0.11172        0.93585
H          4.24559        1.59793        1.15471
H          2.94351        0.88515        2.13872
C          3.05765        1.19359       -1.32411
H          3.93622        1.85409       -1.36643
H          3.40045        0.16375       -1.50639
H          2.37889        1.47577       -2.14035
C         -0.41013        3.50886        1.06605
H         -1.43894        3.75660        0.78897
H         -0.40208        3.03488        2.05816
H          0.13882        4.45853        1.15213
C          0.01904        3.12247       -1.39042
H         -1.04628        3.04314       -1.63985
H          0.29974        4.18181       -1.48088
H          0.58993        2.55556       -2.13761
C          1.15938        0.47791        0.09668
C         -1.31753        0.49851        0.08176
C         -2.47423        1.49738        0.24385
C         -1.46906       -0.19889       -1.28155
C         -1.45558       -0.51189        1.23431
H         -2.43245        2.28014       -0.52486
H         -2.41847        1.98100        1.22721
C         -3.82428        0.77217        0.13808
H         -0.64077       -0.91186       -1.43258
H         -1.39686        0.55087       -2.08621
C         -2.80586       -0.93796       -1.35219
H         -1.37325        0.02164        2.19577
H         -0.63753       -1.25074        1.21094
C         -2.79212       -1.25241        1.13285
H         -4.61680        1.52987        0.23907
C         -3.94432        0.07297       -1.21487
C         -3.94043       -0.25331        1.26393
H         -2.87115       -1.44839       -2.32588
C         -2.87824       -1.96555       -0.21954
H         -2.84043       -1.99047        1.94882
H         -3.90222        0.80801       -2.03573
H         -4.91845       -0.43489       -1.29280
H         -3.90335        0.24607        2.24601
H         -4.90898       -0.77458        1.20711
H         -3.81896       -2.53430       -0.28507
H         -2.05965       -2.70023       -0.31840
Au         1.39127       -1.49917       -0.00391
