38
CAAC_phMe_au.log	Energy: -485282.3552495
C         -2.33830        1.05925       -0.00258
C         -1.89658        2.51347       -0.28705
C         -0.37788        2.59426       -0.04897
H         -2.11510        2.76088       -1.33584
H         -2.43981        3.23485        0.33804
N         -0.00893        1.12689       -0.07608
C         -3.31273        0.53040       -1.05449
H         -3.59780       -0.51203       -0.84638
H         -4.22898        1.13909       -1.04226
H         -2.88480        0.57873       -2.06681
C         -2.93070        0.87669        1.40333
H         -3.87241        1.44118        1.46994
H         -3.15472       -0.18143        1.60561
H         -2.25725        1.24223        2.19146
C          0.34821        3.33483       -1.16016
H          1.43572        3.34665       -1.00123
H          0.13447        2.89599       -2.14558
H         -0.00166        4.37736       -1.17284
C         -0.00128        3.16060        1.31525
H          1.08428        3.11179        1.48187
H         -0.29935        4.21791        1.35646
H         -0.50870        2.63250        2.13482
C         -1.02509        0.32926       -0.05221
C          1.35839        0.69102       -0.03984
C          2.07382        0.55405       -1.22799
C          1.95135        0.39670        1.18715
C          3.39447        0.12020       -1.17836
H          1.59716        0.77094       -2.18558
C          3.27412       -0.03352        1.21726
H          1.37857        0.49712        2.11140
C          4.02124       -0.17500        0.04025
H          3.95091        0.00406       -2.11154
H          3.73547       -0.26814        2.17955
C          5.45511       -0.60619        0.08351
H          5.66510       -1.22712        0.96513
H          5.73446       -1.17205       -0.81602
H          6.11820        0.27315        0.13568
Au        -0.82755       -1.63453       -0.02385
