53
CAAC_dipp_au.log	Energy: -608403.4938702
C          1.98920       -0.28994        1.69152
C          1.08103       -0.64676        2.88924
C         -0.35007       -0.21207        2.53142
H          1.10252       -1.73492        3.04759
H          1.42417       -0.17451        3.81960
N         -0.23784       -0.10177        1.01582
C         -1.39086        0.05037        0.15759
C         -1.83522        1.34564       -0.17526
C         -2.00883       -1.11750       -0.33435
C         -2.99535        1.44181       -0.94979
C         -3.16144       -0.95412       -1.10683
C         -3.66492        0.30888       -1.39398
H         -3.37299        2.42959       -1.22147
H         -3.66843       -1.83697       -1.50107
C         -1.42693       -2.50858       -0.15981
H         -0.61688       -2.45433        0.58247
C         -1.07154        2.61315        0.16208
H         -0.25307        2.35183        0.84688
C          2.99198       -1.39933        1.37587
H          3.61662       -1.13792        0.50829
H          3.65756       -1.54734        2.23922
H          2.48811       -2.35464        1.16581
C          2.72239        1.04893        1.86256
H          3.43837        0.96284        2.69308
H          3.28576        1.30966        0.95410
H          2.03550        1.87667        2.08821
C         -1.39540       -1.24092        2.92867
H         -2.39358       -0.96694        2.55831
H         -1.14511       -2.24823        2.57460
H         -1.44246       -1.27570        4.02653
C         -0.73134        1.14211        3.11677
H         -1.71235        1.47106        2.74871
H         -0.80239        1.03821        4.20863
H          0.00960        1.92266        2.90196
C          0.98050       -0.13686        0.58805
Au         1.43255        0.03424       -1.32854
C         -1.93861        3.66554        0.85152
H         -1.32544        4.52757        1.15353
H         -2.72287        4.04513        0.17966
H         -2.43592        3.27062        1.74894
C         -0.42797        3.18934       -1.10203
H         -1.18772        3.48236       -1.84221
H          0.17237        4.07971       -0.86168
H          0.23690        2.45308       -1.58576
C         -2.45128       -3.52345        0.34476
H         -3.23914       -3.70787       -0.40067
H         -1.96437       -4.48940        0.54511
H         -2.94187       -3.18838        1.26981
C         -0.79561       -2.97783       -1.47333
H         -0.32976       -3.96716       -1.34991
H         -1.54806       -3.05447       -2.27283
H         -0.01680       -2.27654       -1.81797
H         -4.57325        0.41116       -1.99155
