72
l_dipp_au.log	Energy: -907917.1932464
C         -0.11892       -0.19152        2.83537
C          1.97707       -0.02510        1.57914
C          2.64327       -0.04805        2.76721
C          1.96233       -0.14542        4.01837
C          0.60162       -0.22438        4.05689
C         -1.45572       -0.22981        2.50032
H          3.73265       -0.00692        2.73766
H          2.54232       -0.16350        4.94251
H          0.04892       -0.30771        4.99328
H         -2.34413       -0.30730        3.11940
N          0.58070       -0.08477        1.62069
C         -0.30134       -0.04991        0.58432
C         -2.74778       -0.12804        0.38393
C         -3.26432       -1.35466       -0.06130
C         -3.35614        1.11200        0.13281
C         -4.46122       -1.31161       -0.78165
C         -4.55044        1.09430       -0.59249
C         -5.09859       -0.10289       -1.04126
H         -4.90142       -2.24230       -1.14627
H         -5.05991        2.03557       -0.81015
N         -1.52358       -0.14050        1.13780
C          2.61540        0.02092        0.24099
C          2.75130        1.26916       -0.41130
C          2.97783       -1.18756       -0.38743
C          3.24804        1.27829       -1.71963
C          3.48546       -1.12676       -1.69153
C          3.60994        0.08867       -2.35458
H          3.37042        2.22697       -2.24581
H          3.77939       -2.04841       -2.19870
C         -2.56829       -2.67613        0.19475
H         -1.65306       -2.47418        0.77349
C         -2.75472        2.42497        0.59223
H         -1.83100        2.20203        1.14919
C          2.40842        2.56243        0.30205
H          1.71880        2.31353        1.12613
C          2.78908       -2.53305        0.28468
H          2.39433       -2.34967        1.29612
C         -3.43698       -3.61373        1.03293
H         -3.72176       -3.15128        1.98981
H         -4.36414       -3.88396        0.50459
H         -2.89658       -4.54693        1.25192
C         -2.13658       -3.32757       -1.11927
H         -3.00455       -3.59316       -1.74192
H         -1.49800       -2.65107       -1.70883
H         -1.57024       -4.25101       -0.92619
C         -3.68945        3.17016        1.54444
H         -3.21469        4.09490        1.90542
H         -4.62982        3.45329        1.04724
H         -3.94743        2.55464        2.41913
C         -2.36080        3.28882       -0.60614
H         -1.85326        4.20698       -0.27379
H         -1.67890        2.74515       -1.27929
H         -3.24122        3.58770       -1.19533
C          3.66975        3.15958        0.93112
H          4.15068        2.45048        1.62075
H          4.40601        3.42254        0.15582
H          3.42846        4.07365        1.49432
C          1.69739        3.57629       -0.58852
H          1.37992        4.44655        0.00465
H          2.34960        3.95460       -1.39011
H          0.79813        3.14322       -1.05498
C          4.11895       -3.26826        0.44647
H          4.56842       -3.51167       -0.52873
H          4.84642       -2.66322        1.00776
H          3.97203       -4.21491        0.98769
C          1.75670       -3.38258       -0.45778
H          0.79348       -2.85696       -0.54642
H          2.09525       -3.63445       -1.47493
H          1.57973       -4.32877        0.07552
H          4.00357        0.11599       -3.37342
H         -6.03483       -0.09341       -1.60368
Au         0.10151        0.19137       -1.34309
