54
l_mes_au.log	Energy: -760178.4577323
C          0.08952        3.05572        0.00008
C         -2.02596        1.81980        0.00012
C         -2.67763        3.01539        0.00021
C         -1.97959        4.26160        0.00023
C         -0.61652        4.28639        0.00016
C          1.42297        2.70614        0.00001
H         -3.76834        2.99784        0.00025
H         -2.54828        5.19291        0.00031
H         -0.05095        5.21886        0.00017
H          2.31973        3.31853       -0.00001
N         -0.62716        1.84647        0.00007
C          0.24148        0.79871        0.00001
C          2.68412        0.56489       -0.00008
C          3.24254        0.20212       -1.23241
C          3.24252        0.20194        1.23222
C          4.41305       -0.55709       -1.20237
C          4.41303       -0.55726        1.20209
C          5.01505       -0.94313       -0.00016
H          4.86932       -0.85522       -2.15002
H          4.86928       -0.85552        2.14970
N          1.47407        1.33943       -0.00003
C         -2.67037        0.48731        0.00001
C         -2.91363       -0.16022        1.22754
C         -2.91388       -0.15989       -1.22765
C         -3.37579       -1.47957        1.20269
C         -3.37607       -1.47923       -1.20308
C         -3.60893       -2.15937       -0.00027
H         -3.56459       -1.99086        2.15069
H         -3.56507       -1.99025       -2.15118
C         -4.14521       -3.55893       -0.00041
H         -5.24765       -3.54337       -0.00052
H         -3.82913       -4.11644       -0.89320
H         -3.82929       -4.11656        0.89237
C          6.29348       -1.72591       -0.00021
H          6.37820       -2.36256       -0.89181
H          7.16090       -1.04533       -0.00005
H          6.37809       -2.36282        0.89122
C          2.59849        0.60056       -2.52708
H          1.59153        0.16266       -2.62442
H          2.48486        1.69290       -2.60836
H          3.19628        0.26105       -3.38220
C          2.59844        0.60019        2.52693
H          2.48469        1.69252        2.60831
H          1.59153        0.16217        2.62425
H          3.19629        0.26067        3.38200
C         -2.64757        0.53690        2.52929
H         -1.59876        0.86681        2.60481
H         -3.27283        1.43628        2.63523
H         -2.85468       -0.12193        3.38250
C         -2.64803        0.53756       -2.52927
H         -3.27323        1.43703       -2.63485
H         -1.59920        0.86742       -2.60490
H         -2.85534       -0.12102       -3.38262
Au        -0.18386       -1.13614        0.00013
