42
l_phme_au.log	Energy: -661667.4439271
C         -0.23019        3.09861       -0.05113
C          1.92024        1.93393       -0.00032
C          2.53115        3.15188       -0.02715
C          1.79488        4.37450       -0.06287
C          0.43246        4.35277       -0.07232
C         -1.55212        2.71362       -0.08111
H          3.62153        3.17050       -0.01275
H          2.33381        5.32310       -0.08045
H         -0.16589        5.26413       -0.09992
H         -2.46164        3.30361       -0.14069
N          0.51985        1.90968       -0.01822
C         -0.31950        0.83799       -0.02800
C         -2.76378        0.56016       -0.09704
C         -3.71727        0.73860        0.90222
C         -2.96434       -0.36512       -1.11940
C         -4.87998       -0.02427        0.87412
H         -3.54175        1.45610        1.70681
C         -4.13046       -1.12338       -1.12769
H         -2.22020       -0.47699       -1.91058
C         -5.10904       -0.96740       -0.13679
H         -5.62368        0.11008        1.66328
H         -4.28937       -1.84666       -1.93120
N         -1.56799        1.34494       -0.07179
C          2.65365        0.64848        0.00517
C          3.28495        0.19921       -1.15798
C          2.69827       -0.15952        1.15505
C          3.92782       -1.03784       -1.18202
H          3.25841        0.81735       -2.05845
C          3.33733       -1.39959        1.11888
H          2.25103        0.19484        2.08765
C          3.96135       -1.86312       -0.05244
H          4.41363       -1.36912       -2.10323
H          3.37748       -2.00705        2.02714
C          4.68389       -3.17538       -0.07093
H          5.73135       -3.03862        0.24503
H          4.22963       -3.90042        0.61892
H          4.70196       -3.61430       -1.07799
C         -6.37872       -1.76206       -0.17436
H         -6.23754       -2.72739       -0.67964
H         -6.76621       -1.95197        0.83627
H         -7.15961       -1.21331       -0.72640
Au         0.21266       -1.07175        0.13396
