40
l_terbutyl_au.log	Energy: -519946.5148251
C          0.60778        2.54455       -0.00001
C          2.26289        0.74908       -0.00000
C          3.19765        1.74772        0.00003
C          2.90738        3.13939        0.00005
C          1.61120        3.54030        0.00002
C         -0.75836        2.66132       -0.00003
H          4.24333        1.45496        0.00004
H          3.72565        3.86073        0.00007
H          1.30873        4.58807        0.00001
H         -1.35486        3.56430       -0.00005
N          0.90384        1.16335       -0.00001
C         -0.29033        0.48190       -0.00002
N         -1.27940        1.40552       -0.00004
C         -2.76300        1.13066       -0.00006
C         -3.51498        2.45936       -0.00010
H         -3.30489        3.05756       -0.89831
H         -4.59078        2.24026       -0.00012
H         -3.30493        3.05759        0.89810
C         -3.12932        0.36506       -1.26991
H         -2.82608        0.92361       -2.16738
H         -2.65969       -0.62979       -1.30942
H         -4.21790        0.21997       -1.30446
C         -3.12936        0.36511        1.26981
H         -2.65974       -0.62974        1.30938
H         -2.82615        0.92370        2.16727
H         -4.21795        0.22003        1.30433
C          2.69941       -0.71801       -0.00006
C          2.24695       -1.42000       -1.29383
H          2.51141       -2.48728       -1.25229
H          1.16884       -1.34616       -1.50313
H          2.76291       -0.97998       -2.16001
C          4.23245       -0.83131       -0.00010
H          4.68650       -0.38312        0.89524
H          4.49839       -1.89789       -0.00014
H          4.68646       -0.38306       -0.89542
C          2.24700       -1.42010        1.29368
H          2.76309       -0.98021        2.15986
H          1.16892       -1.34617        1.50310
H          2.51136       -2.48740        1.25201
Au        -0.65833       -1.48496        0.00006
