48
per_phme_au.log	Energy: -757913.9860485
C          2.43351       -2.83588       -0.00017
C          1.23265       -2.16117       -0.00007
C          0.00003       -2.86029       -0.00001
C          0.00006       -4.28279       -0.00003
C          1.24894       -4.95681       -0.00011
C          2.42641       -4.24787       -0.00018
H          3.37663       -2.29020       -0.00023
C         -1.23261       -2.16121        0.00009
C         -1.24879       -4.95686        0.00005
H          1.25911       -6.04852       -0.00012
H          3.38138       -4.77701       -0.00025
C         -2.42629       -4.24796        0.00015
C         -2.43344       -2.83598        0.00018
H         -1.25892       -6.04857        0.00003
H         -3.38124       -4.77714        0.00021
H         -3.37659       -2.29033        0.00028
C         -0.00002       -0.08697        0.00003
N         -1.16137       -0.73982        0.00009
N          1.16136       -0.73978       -0.00004
C         -2.38818        0.01274        0.00016
C         -2.98220        0.35900        1.21162
C         -2.98275        0.35831       -1.21139
C         -4.17413        1.07750        1.20283
H         -2.51516        0.06057        2.15282
C         -4.17457        1.07669       -1.20256
H         -2.51602        0.05932       -2.15257
C         -4.78963        1.45144        0.00022
H         -4.64049        1.34899        2.15301
H         -4.64133        1.34757       -2.15275
C          2.38814        0.01282       -0.00010
C          2.98212        0.35915       -1.21161
C          2.98269        0.35837        1.21140
C          4.17398        1.07767       -1.20284
H          2.51503        0.06076       -2.15279
C          4.17452        1.07685        1.20255
H          2.51600        0.05937        2.15259
C          4.78952        1.45160       -0.00018
H          4.64029        1.34924       -2.15304
H          4.64127        1.34779        2.15272
C          6.05970        2.24693       -0.00005
H          5.83958        3.32730        0.00543
H          6.66954        2.03345        0.88866
H          6.66494        2.04135       -0.89373
C         -6.05961        2.24707       -0.00039
H         -6.65820        2.05333        0.90031
H         -5.83920        3.32720       -0.02183
H         -6.67611        2.02243       -0.88179
Au        -0.00001        1.91084        0.00007
