78
per_dipp_au.log	Energy: -1004166.8384459
C          2.43296        2.73358        0.00042
C          1.23124        2.05913        0.00027
C          0.00004        2.76021        0.00017
C          0.00007        4.18278        0.00026
C          1.24951        4.85581        0.00042
C          2.42670        4.14563        0.00049
H          3.37416        2.18421        0.00048
C         -1.23118        2.05917       -0.00000
C         -1.24936        4.85586        0.00017
H          1.26090        5.94753        0.00047
H          3.38185        4.67458        0.00062
C         -2.42656        4.14572        0.00002
C         -2.43288        2.73366       -0.00006
H         -1.26071        5.94757        0.00023
H         -3.38170        4.67469       -0.00004
H         -3.37410        2.18433       -0.00017
C         -0.00000       -0.01063        0.00005
N         -1.16034        0.64150       -0.00005
N          1.16035        0.64146        0.00017
C         -2.39089       -0.11052       -0.00017
C         -2.96708       -0.44247       -1.23785
C         -2.96759       -0.44191        1.23742
C         -4.16526       -1.16181       -1.20789
C         -4.16573       -1.16129        1.20731
C         -4.75748       -1.51783       -0.00032
H         -4.64501       -1.44461       -2.14754
H         -4.64583       -1.44372        2.14691
C          2.39089       -0.11060        0.00010
C          2.96718       -0.44271        1.23768
C          2.96745       -0.44188       -1.23759
C          4.16529       -1.16215        1.20753
C          4.16554       -1.16136       -1.20767
C          4.75736       -1.51809       -0.00013
H          4.64511       -1.44509        2.14711
H          4.64553       -1.44370       -2.14735
C          2.33764       -0.05394       -2.56033
H          1.41102        0.50146       -2.34691
C          2.33718       -0.05557        2.56057
H          1.41002        0.49900        2.34737
C         -2.33691       -0.05524       -2.56063
H         -1.40969        0.49918       -2.34726
C         -2.33781       -0.05427        2.56026
H         -1.41113        0.50108        2.34700
C          3.24632        0.87929        3.35855
H          4.19166        0.38574        3.63160
H          3.49063        1.78555        2.78529
H          2.75285        1.19073        4.29142
C          1.95171       -1.29380        3.36959
H          1.27917       -1.95302        2.79760
H          2.83672       -1.88466        3.65105
H          1.43470       -1.00597        4.29725
C          3.24745        0.88020       -3.35836
H          3.49277        1.78611       -2.78498
H          4.19226        0.38583       -3.63180
H          2.75402        1.19229       -4.29103
C          1.95089       -1.29175       -3.36939
H          2.83531       -1.88352       -3.65079
H          1.27762       -1.95025       -2.79743
H          1.43421       -1.00337       -4.29707
C         -3.24583        0.87984       -3.35859
H         -4.19118        0.38641       -3.63187
H         -3.49015        1.78603       -2.78522
H         -2.75219        1.19138       -4.29133
C         -1.95152       -1.29343       -3.36975
H         -1.27913       -1.95281       -2.79777
H         -2.83658       -1.88411       -3.65139
H         -1.43436       -1.00555       -4.29732
C         -3.24756        0.87979        3.35846
H         -3.49279        1.78583        2.78524
H         -4.19241        0.38545        3.63179
H         -2.75412        1.19166        4.29119
C         -1.95122       -1.29231        3.36905
H         -2.83570       -1.88406        3.65028
H         -1.27801       -1.95075        2.79692
H         -1.43451       -1.00422        4.29680
H         -5.69554       -2.07733       -0.00039
H          5.69538       -2.07767       -0.00021
Au        -0.00006       -2.00779       -0.00000
