46
per_terbutyl_au.log	Energy: -616178.2557921
C         -2.33483       -2.01549       -1.31304
C         -1.69593       -1.08669       -0.51943
C         -2.42702        0.00008       -0.00019
C         -3.84363        0.00007       -0.00027
C         -4.48927       -1.02001       -0.74568
C         -3.74358       -1.95499       -1.43184
H         -1.78647       -2.81740       -1.80577
C         -1.69596        1.08681        0.51918
C         -4.48935        1.02011        0.74512
H         -5.58030       -1.04764       -0.78336
H         -4.24758       -2.70415       -2.04565
C         -3.74373        1.95505        1.43141
C         -2.33497        2.01556        1.31277
H         -5.58038        1.04775        0.78268
H         -4.24779        2.70417        2.04522
H         -1.78669        2.81744        1.80564
C          0.33408        0.00009       -0.00014
N         -0.33821        1.15560        0.07412
N         -0.33827       -1.15548       -0.07422
C          0.22149       -2.47445        0.46327
C          1.13417       -3.09974       -0.58487
H          1.54983       -4.04285       -0.20270
H          0.58707       -3.31805       -1.51305
H          1.98060       -2.43991       -0.83683
C          0.95139       -2.21457        1.78719
H          1.87945       -1.63584        1.67662
H          0.29817       -1.68659        2.49785
H          1.22813       -3.17993        2.23181
C          0.22194        2.47473       -0.46258
C          0.95233        2.21547       -1.78645
H          1.88150        1.63850       -1.67565
H          0.30024        1.68612       -2.49709
H          1.22775        3.18119       -2.23112
C         -0.92071        3.43296       -0.81472
H         -1.42463        3.86632        0.05400
H         -0.48431        4.26600       -1.38178
H         -1.67535        2.95107       -1.45223
C          1.13434        3.09934        0.58620
H          1.55041        4.04250        0.20457
H          0.58697        3.31743        1.51426
H          1.98048        2.43915        0.83817
C         -0.92140       -3.43238        0.81541
H         -1.42462       -3.86659       -0.05330
H         -0.48542       -4.26485        1.38361
H         -1.67656       -2.94991        1.45186
Au         2.35732       -0.00021       -0.00019
