39
thiazol_dipp_au.log	Energy: -734975.1149031
C         -0.83074       -0.52751        0.66456
N          0.41724       -0.37318        1.02208
C         -0.47184       -1.35126        3.05046
H         -0.44462       -2.33852        3.52943
H         -0.70943       -0.59425        3.81088
C          0.80380       -1.04513        2.27662
H          1.48737       -0.39548        2.83629
H          1.34561       -1.96341        2.00637
C          1.40292        0.29219        0.20180
C          1.53417        1.69333        0.32538
C          2.47692        2.31670       -0.49879
H          2.60004        3.39999       -0.42617
C          3.25128        1.59543       -1.39752
C          3.10316        0.21906       -1.48216
H          3.71766       -0.34831       -2.18569
C          2.18512       -0.47737       -0.68570
C          2.20606       -1.99559       -0.84149
H          2.56198       -2.14270       -1.87385
C          0.72608        2.61491        1.23389
H          1.33330        3.53307        1.27057
H          3.97709        2.10881       -2.03155
C          3.27963       -2.61794        0.05882
H          3.38364       -3.69182       -0.15717
H          4.25788       -2.14302       -0.10213
H          3.04323       -2.51650        1.12905
C          0.88707       -2.76010       -0.76436
H          0.48813       -2.86760        0.25477
H          0.10697       -2.30083       -1.39045
H          1.04418       -3.78151       -1.14034
C          0.54976        2.18389        2.68725
H         -0.21154        1.39971        2.80624
H          1.49594        1.84454        3.13443
H          0.20138        3.04203        3.28052
C         -0.61226        3.02474        0.61455
H         -0.48955        3.35265       -0.42846
H         -1.34376        2.20039        0.63486
H         -1.05416        3.85873        1.18029
S         -1.81681       -1.33243        1.79870
Au        -1.56443        0.06688       -1.07255
