33
thiazol_ad_au.log	Energy: -685753.1413128
N         -0.04757        1.44324        0.00001
C         -1.25643        0.87238        0.00001
C          1.25295        0.67278        0.00001
C          1.33157       -0.19497       -1.26263
C          2.44219        1.64148        0.00006
C          1.33153       -0.19506        1.26258
H          1.26899        0.44779       -2.15620
H          0.47327       -0.88793       -1.30293
C          2.63735       -0.99511       -1.25238
H          2.40902        2.28660        0.89348
H          2.40905        2.28666       -0.89333
C          3.75467        0.84659        0.00005
H          0.47322       -0.88801        1.30282
H          1.26893        0.44765        2.15620
C          2.63731       -0.99520        1.25232
H          2.66712       -1.62477       -2.15510
C          3.82292       -0.02847       -1.25199
C          2.68412       -1.87510       -0.00006
H          4.58722        1.56675        0.00010
C          3.82287       -0.02856        1.25204
H          2.66705       -1.62493        2.15499
H          3.80818        0.59582       -2.16051
H          4.76992       -0.59019       -1.26802
H          1.83989       -2.58653       -0.00010
H          3.60366       -2.48084       -0.00007
H          4.76987       -0.59028        1.26806
H          3.80810        0.59567        2.16060
C         -1.35623        3.32438       -0.00000
H         -1.65765        4.37112       -0.00001
C         -0.09552        2.82576        0.00000
H          0.82250        3.40447        0.00000
S         -2.49007        2.03817       -0.00000
Au        -1.74519       -1.04643       -0.00000
