28
thiazol_mes_au.log	Energy: -660354.9811973
N         -0.13038        1.42114       -0.00002
C         -1.23223        0.66697       -0.00000
C          1.20005        0.85701       -0.00002
C          1.80849        0.59677       -1.23509
C          3.08882        0.04285       -1.20301
H          3.58948       -0.17325       -2.15035
C          3.74613       -0.23839       -0.00003
C          3.08884        0.04289        1.20296
H          3.58952       -0.17319        2.15030
C          1.80851        0.59681        1.23505
C          1.11200        0.89209        2.53047
H          0.17960        0.31312        2.63377
H          0.84255        1.95658        2.61861
H          1.75416        0.64178        3.38398
C          5.13619       -0.79753       -0.00003
H          5.32632       -1.41043       -0.89183
H          5.32634       -1.41038        0.89180
H          5.87656        0.01946       -0.00006
C          1.11196        0.89201       -2.53052
H          0.17955        0.31304       -2.63379
H          1.75411        0.64168       -3.38403
H          0.84251        1.95651       -2.61868
C         -0.36252        2.78253       -0.00004
H          0.48637        3.46532       -0.00006
C         -1.68460        3.08505       -0.00003
H         -2.14644        4.07190       -0.00004
S         -2.62344        1.64134       -0.00000
Au        -1.23598       -1.30299        0.00003
