22
thiazol_phme_au.log	Energy: -611099.4652736
N          0.03195        1.49379        0.08739
C          1.13386        0.73588        0.04886
C         -1.30267        0.95412        0.07091
C         -1.73537        0.16187        1.13238
C         -3.02473       -0.35960        1.10091
H         -3.36902       -0.97778        1.93344
C         -3.89235       -0.09502        0.03207
C         -3.42490        0.71085       -1.01598
H         -4.07978        0.92419       -1.86412
C         -2.13810        1.23856       -1.00601
C         -5.29099       -0.63003        0.02378
H         -5.37613       -1.55218        0.61450
H         -5.63825       -0.83641       -0.99808
H         -5.98434        0.10678        0.46206
C          0.27032        2.85466        0.14917
H         -0.57469        3.54018        0.19787
C          1.59298        3.15179        0.16349
H          2.05599        4.13661        0.21875
S          2.52602        1.70727        0.10097
H         -1.07730       -0.02784        1.98363
H         -1.78120        1.85066       -1.83745
Au         1.16527       -1.23134       -0.09032
