21
thiazol_terbutyl_au.log	Energy: -540244.7926937
C         -0.22842        0.70069        0.00005
N         -1.49777        0.28647        0.00014
C         -2.41419        1.32712        0.00026
H         -3.47941        1.11121        0.00034
C         -1.84720        2.55560        0.00026
H         -2.35046        3.52176        0.00034
C         -2.03602       -1.13562        0.00013
C         -0.92534       -2.17216       -0.00001
H         -0.29816       -2.11654        0.90245
H         -1.39905       -3.16353       -0.00001
H         -0.29830       -2.11647       -0.90256
C         -2.87483       -1.29788       -1.26786
H         -3.26348       -2.32471       -1.31061
H         -3.74026       -0.62155       -1.29503
H         -2.26727       -1.12481       -2.16827
C         -2.87462       -1.29798        1.26823
H         -3.26327       -2.32481        1.31096
H         -2.26692       -1.12499        2.16856
H         -3.74004       -0.62165        1.29561
S         -0.13878        2.40112        0.00011
Au         1.49715       -0.27336       -0.00014
