33
triazol_terbutyl_au.log	Energy: -433765.0764937
N         -0.91383        1.39571       -0.00000
C          0.07074        0.48527       -0.00001
N          1.22306        1.19615       -0.00004
C          0.85627        2.51457       -0.00003
H          1.55554        3.34703       -0.00004
C         -2.40122        1.17268        0.00000
C          2.66830        0.77814        0.00001
C          2.82276       -0.73421       -0.00024
H          2.39460       -1.19795       -0.90184
H          3.89785       -0.96168       -0.00029
H          2.39463       -1.19825        0.90121
C          3.30472        1.35517        1.26483
H          4.36404        1.06606        1.30358
H          3.26414        2.45339        1.28876
H          2.81018        0.96769        2.16773
C          3.30493        1.35560       -1.26451
H          4.36423        1.06641       -1.30324
H          2.81048        0.96849       -2.16762
H          3.26446        2.45383       -1.28804
C         -2.77809        0.40747       -1.26626
H         -2.33275       -0.59973       -1.29422
H         -3.86945        0.28688       -1.30451
H         -2.46152        0.95364       -2.16667
C         -3.08216        2.53648       -0.00002
H         -4.16822        2.37136       -0.00002
H         -2.81917        3.12385        0.88901
H         -2.81917        3.12382       -0.88908
C         -2.77809        0.40752        1.26630
H         -2.46154        0.95373        2.16669
H         -3.86946        0.28692        1.30454
H         -2.33275       -0.59967        1.29430
N         -0.43302        2.64706       -0.00001
Au        -0.19049       -1.48368       -0.00000
