47
triazol_mes_au.log	Energy: -673979.5089380
N          1.07432        1.28206       -0.00060
C         -0.00169        0.46835       -0.00025
N         -1.06063        1.27972       -0.00056
C          2.44933        0.86784       -0.00040
C          3.08479        0.67106       -1.23385
C          4.41813        0.26150       -1.20297
H          4.93923        0.09936       -2.15007
C          5.10269        0.05612       -0.00001
C          4.41830        0.26322        1.20276
H          4.93953        0.10243        2.15002
C          3.08497        0.67283        1.23324
C          2.35963        0.88841        2.52874
H          1.49173        0.21573        2.62603
H          1.98167        1.91900        2.62141
H          3.02232        0.70106        3.38280
C          6.54606       -0.34642        0.00019
H          6.80237       -0.93536       -0.89124
H          6.80239       -0.93439        0.89226
H          7.19227        0.54691       -0.00029
C          2.35925        0.88466       -2.52957
H          1.49201        0.21103       -2.62616
H          3.02212        0.69704       -3.38344
H          1.98029        1.91478       -2.62331
C         -2.43499        0.87149       -0.00031
C         -3.07011        0.68220        1.23326
C         -4.40204        0.26888        1.20342
H         -4.92485        0.11273        2.15062
C         -5.08481        0.05862        0.00015
C         -4.40238        0.26866       -1.20336
H         -4.92546        0.11232       -2.15038
C         -3.07046        0.68197       -1.23366
C         -2.34788        0.92368       -2.52527
H         -1.97741        1.95889       -2.58664
H         -3.01017        0.75135       -3.38282
H         -1.47737        0.25618       -2.63720
C         -6.52775       -0.34607        0.00039
H         -7.17487        0.54660        0.00096
H         -6.78321       -0.93518        0.89199
H         -6.78372       -0.93440       -0.89159
C         -2.34718        0.92414        2.52463
H         -3.00943        0.75264        3.38237
H         -1.97607        1.95916        2.58543
H         -1.47706        0.25617        2.63677
C          0.59623        2.56656       -0.00110
H          1.23965        3.44519       -0.00146
N         -0.70351        2.58160       -0.00108
Au        -0.01187       -1.49809        0.00055
