69
5s_dih_dIdipp_auh.log	Energy: -814682.0569621
N          0.96913        0.21903        1.09808
C         -0.10423        0.05684        0.31311
N         -1.20062        0.15205        1.08066
C          0.62711        0.34551        2.51481
H          1.15084        1.19899        2.97041
H          0.93357       -0.56560        3.05769
C         -0.88824        0.52878        2.46163
H         -1.42995       -0.10350        3.17670
H         -1.18343        1.57450        2.64142
C          2.32935        0.10182        0.68260
C          3.06966        1.27745        0.45709
C          4.41466        1.15116        0.10334
H          5.00612        2.04895       -0.08908
C          5.00680       -0.10085       -0.02115
C          4.25657       -1.24964        0.19712
H          4.72550       -2.22994        0.08335
C          2.90662       -1.17443        0.55211
C          2.11494       -2.44836        0.75741
H          1.08113       -2.16202        0.99580
C          2.41780        2.64264        0.50752
H          1.45002        2.52455        1.01678
C         -2.54759        0.02598        0.61769
C         -3.13817       -1.25914        0.58159
C         -4.46043       -1.36387        0.13849
H         -4.92122       -2.35430        0.09883
C         -5.18718       -0.24983       -0.25641
C         -4.59189        1.00049       -0.20567
H         -5.15691        1.88201       -0.52064
C         -3.27323        1.17487        0.23325
C         -2.80424        2.62531        0.28374
H         -3.38834        3.11472       -0.51323
C         -2.45197       -2.57786        0.91732
H         -3.28850       -3.28287        1.05631
H         -6.21613       -0.35753       -0.60693
H          6.06014       -0.18129       -0.30011
C          2.12018        3.12554       -0.91317
H          3.05453        3.28016       -1.47599
H          1.51806        2.38549       -1.46347
H          1.57019        4.07946       -0.89578
C          3.22947        3.66536        1.29743
H          3.45124        3.30873        2.31517
H          4.18867        3.89476        0.80763
H          2.67416        4.61246        1.37940
C          2.64862       -3.26435        1.93403
H          2.01879       -4.15123        2.10614
H          3.67536       -3.61713        1.74772
H          2.66615       -2.67225        2.86229
C          2.05927       -3.27099       -0.52897
H          3.06127       -3.61453       -0.83073
H          1.42735       -4.16167       -0.39107
H          1.63977       -2.67512       -1.35458
C         -3.24087        3.29136        1.59299
H         -3.00961        4.36795        1.57307
H         -4.32204        3.17625        1.75997
H         -2.72797        2.85695        2.46489
C         -1.34662        2.92473       -0.04171
H         -0.66589        2.68678        0.78716
H         -1.00392        2.37243       -0.92881
H         -1.23452        4.00098       -0.24382
C         -1.65505       -2.63972        2.21742
H         -0.69297       -2.11620        2.14788
H         -2.22286       -2.22664        3.06495
H         -1.42678       -3.69032        2.45431
C         -1.64150       -3.10073       -0.26896
H         -2.26640       -3.17920       -1.17017
H         -0.80691       -2.42902       -0.52032
H         -1.23063       -4.09788       -0.04519
Au        -0.02292       -0.16749       -1.74516
H          0.05402       -0.29180       -3.34944
