93
5s_dibutyl_dipp_auh.log	Energy: -1012124.7465452
N          1.04265        0.58727       -0.04191
C         -0.02322       -0.23008       -0.03755
N         -1.14064        0.50215       -0.05105
C          0.67241        2.02763       -0.11174
H          0.99611        2.51845        0.81920
C         -0.88625        1.96776       -0.15303
H         -1.20748        2.28522       -1.15573
C          2.36824        0.12060        0.26999
C          3.13714       -0.60424       -0.67100
C          4.45285       -0.93484       -0.33020
H          5.05717       -1.49006       -1.05070
C          5.01233       -0.56862        0.88543
C          4.23062        0.09959        1.81635
H          4.65108        0.35315        2.79236
C          2.90130        0.42906        1.54144
C          2.08131        1.05073        2.65516
H          1.04612        1.12368        2.29903
C          2.65459       -1.03723       -2.04381
H          1.59773       -0.74925       -2.13625
C         -2.46640       -0.05157       -0.07594
C         -3.06403       -0.56541        1.10627
C         -4.46199       -0.69757        1.10611
H         -4.94752       -1.02066        2.03042
C         -5.23961       -0.45497       -0.01301
C         -4.60462       -0.15914       -1.20890
H         -5.18835       -0.07641       -2.12988
C         -3.22207        0.03154       -1.27537
C         -2.68991        0.23334       -2.69400
H         -3.41180       -0.34390       -3.29578
C         -2.44872       -1.12249        2.40392
H         -3.07317       -0.68603        3.20447
H         -6.32621       -0.55439        0.03399
H          6.04938       -0.82403        1.11483
C          2.71541       -2.55669       -2.21091
H          3.75355       -2.92328       -2.17827
H          2.13616       -3.06822       -1.42830
H          2.29035       -2.84538       -3.18473
C          3.45878       -0.36314       -3.15976
H          3.49856        0.72941       -3.05462
H          4.49666       -0.73104       -3.17055
H          3.01765       -0.59484       -4.14177
C          2.55937        2.45345        3.02956
H          1.91466        2.88950        3.80897
H          3.58741        2.42934        3.42373
H          2.55790        3.13632        2.16663
C          2.05468        0.14177        3.88485
H          3.04352        0.08356        4.36535
H          1.34445        0.52762        4.63259
H          1.74959       -0.87904        3.61643
C         -2.81260        1.66556       -3.21975
H         -2.59865        1.69104       -4.29953
H         -3.82896        2.05816       -3.06548
H         -2.11589        2.36474       -2.73658
C         -1.33960       -0.40475       -2.98982
H         -0.50353        0.14169       -2.54568
H         -1.29531       -1.43615       -2.60848
H         -1.17088       -0.42885       -4.07772
C         -0.99993       -0.89180        2.81319
H         -0.30903       -1.50528        2.21641
H         -0.67594        0.14711        2.74369
H         -0.88933       -1.20277        3.86303
C         -2.68904       -2.64218        2.41718
H         -3.74679       -2.90455        2.27920
H         -2.10789       -3.11763        1.61061
H         -2.35118       -3.06702        3.37512
C         -1.70087        2.86312        0.85088
C         -1.17804        4.30207        0.87958
H         -1.76380        4.86617        1.62051
H         -0.12480        4.36479        1.18594
H         -1.29683        4.81431       -0.08246
C         -3.16855        2.94707        0.40410
H         -3.24881        3.27583       -0.64332
H         -3.70381        1.99535        0.50257
H         -3.69494        3.68819        1.02542
C         -1.65561        2.35590        2.28765
H         -2.18070        3.06921        2.94071
H         -2.15528        1.38919        2.39315
H         -0.62516        2.27091        2.66404
C          1.38323        2.79110       -1.28357
C          0.92417        4.24644       -1.38938
H          1.13382        4.82429       -0.47937
H          1.47473        4.72250       -2.21483
H         -0.14439        4.33306       -1.62597
C          2.89600        2.84230       -1.02529
H          3.11601        3.27538       -0.03737
H          3.37842        1.86047       -1.06801
H          3.37337        3.48367       -1.78205
C          1.10581        2.14729       -2.63821
H          1.71789        2.63301       -3.41308
H          1.34325        1.08030       -2.64489
H          0.05522        2.26482       -2.93705
Au        -0.03383       -2.31060       -0.12132
H         -0.07928       -3.91936       -0.22780
