63
5s_dibutyl_phme_auh.log	Energy: -765322.5111325
N         -1.08376       -0.65063       -0.01762
C          0.00000        0.14324        0.00001
N          1.08376       -0.65065        0.01764
C         -0.74426       -2.07135       -0.19059
H         -1.32460       -2.67538        0.52089
C          0.74425       -2.07136        0.19061
H          1.32458       -2.67539       -0.52087
C         -2.41866       -0.18783        0.10134
C         -2.88244        0.87665       -0.67671
C         -4.19449        1.31401       -0.54526
H         -4.53599        2.15180       -1.15907
C         -5.08564        0.70154        0.34553
C         -4.60916       -0.36985        1.10634
H         -5.27864       -0.86877        1.81206
C         -3.29200       -0.80807        0.99457
C         -6.49429        1.19820        0.48779
H         -6.52042        2.15372        1.03705
H         -7.12222        0.48232        1.03652
H         -6.95816        1.37771       -0.49399
C          2.41867       -0.18785       -0.10135
C          2.88248        0.87659        0.67672
C          4.19453        1.31395        0.54524
H          4.53606        2.15171        1.15907
C          5.08564        0.70151       -0.34561
C          4.60912       -0.36985       -1.10645
H          5.27856       -0.86874       -1.81222
C          3.29196       -0.80807       -0.99464
C          6.49428        1.19816       -0.48792
H          7.12230        0.48208       -1.03632
H          6.95805        1.37807        0.49382
H          6.52045        2.15346       -1.03756
C         -1.05335       -2.60642       -1.61754
C         -2.56005       -2.55621       -1.89300
H         -3.13239       -3.07003       -1.10490
H         -2.93933       -1.52875       -1.96389
H         -2.77694       -3.05902       -2.84822
C         -0.61758       -4.07322       -1.69054
H          0.46598       -4.20442       -1.55291
H         -1.13118       -4.68327       -0.93084
H         -0.87202       -4.48795       -2.67749
C         -0.32107       -1.78855       -2.68139
H          0.77248       -1.84878       -2.57619
H         -0.57586       -2.16056       -3.68542
H         -0.60426       -0.72616       -2.63656
C          1.05333       -2.60643        1.61756
C          0.61753       -4.07323        1.69056
H          1.13112       -4.68328        0.93086
H          0.87197       -4.48796        2.67751
H         -0.46603       -4.20441        1.55293
C          2.56002       -2.55624        1.89303
H          3.13235       -3.07008        1.10494
H          2.93932       -1.52879        1.96390
H          2.77690       -3.05904        2.84826
C          0.32105       -1.78855        2.68141
H         -0.77250       -1.84876        2.57620
H          0.57583       -2.16056        3.68544
H          0.60425       -0.72616        2.63658
H         -2.20667        1.36091       -1.38402
H         -2.94490       -1.63746        1.61380
H          2.94483       -1.63742       -1.61389
H          2.20675        1.36083        1.38408
Au         0.00001        2.22427        0.00003
H          0.00002        3.83547        0.00005
