61
5s_dih_dIad_auh.log	Energy: -717482.7366418
N          1.08959       -1.35900       -0.08966
C          0.00000       -0.57661        0.00000
N         -1.08959       -1.35900        0.08966
C          0.74677       -2.76239        0.12990
H          0.97894       -3.05613        1.17026
H          1.28943       -3.43566       -0.54382
C         -0.74677       -2.76239       -0.12990
H         -0.97894       -3.05613       -1.17027
H         -1.28943       -3.43566        0.54381
C         -2.48384       -0.87689        0.04452
C         -2.75939       -0.15431       -1.28411
C         -3.45789       -2.06030        0.16245
C         -2.75918        0.07186        1.22051
H         -2.56371       -0.84656       -2.12173
H         -2.05439        0.68828       -1.38319
C         -4.20248        0.34971       -1.32513
H         -3.28286       -2.59676        1.11023
H         -3.29532       -2.77580       -0.66003
C         -4.90718       -1.56283        0.11487
H         -2.05502        0.92050        1.17919
H         -2.56585       -0.46511        2.16468
C         -4.19999        0.58136        1.16737
H         -4.37200        0.87512       -2.27910
C         -5.15912       -0.83904       -1.21000
C         -4.43166        1.31419       -0.15758
H         -5.57771       -2.43411        0.19634
C         -5.16205       -0.60242        1.27809
H         -4.36236        1.27589        2.00744
H         -5.00987       -1.53066       -2.05679
H         -6.20595       -0.49530       -1.25744
H         -3.74444        2.17237       -0.23780
H         -5.45882        1.71452       -0.19356
H         -6.20791       -0.25287        1.25596
H         -5.01683       -1.12197        2.24045
C          2.48384       -0.87689       -0.04452
C          2.75939       -0.15431        1.28411
C          3.45789       -2.06030       -0.16245
C          2.75918        0.07186       -1.22051
H          2.56371       -0.84657        2.12173
H          2.05440        0.68828        1.38319
C          4.20248        0.34971        1.32513
H          3.28286       -2.59675       -1.11023
H          3.29532       -2.77580        0.66003
C          4.90718       -1.56283       -0.11487
H          2.05502        0.92051       -1.17918
H          2.56585       -0.46510       -2.16468
C          4.19999        0.58136       -1.16736
H          4.37200        0.87511        2.27910
C          5.15912       -0.83905        1.21000
C          4.43166        1.31418        0.15758
H          5.57771       -2.43411       -0.19634
C          5.16205       -0.60242       -1.27809
H          4.36236        1.27589       -2.00744
H          5.00987       -1.53066        2.05679
H          6.20595       -0.49530        1.25744
H          3.74444        2.17237        0.23781
H          5.45882        1.71452        0.19356
H          6.20791       -0.25287       -1.25596
H          5.01683       -1.12197       -2.24045
Au         0.00000        1.52622        0.00000
H         -0.00000        3.13511       -0.00000
