75
5s_dibutyl_mes_auh.log	Energy: -864054.2727287
N          1.09117       -0.65456        0.03039
C          0.00000        0.12225        0.00000
N         -1.09117       -0.65456       -0.03039
C          0.77597       -2.10121        0.07186
H          1.22335       -2.58426       -0.81142
C         -0.77597       -2.10121       -0.07186
H         -1.22335       -2.58426        0.81142
C          2.40395       -0.08804       -0.08239
C          2.95362        0.66955        0.97186
C          4.23953        1.19011        0.81289
H          4.66201        1.78034        1.63129
C          4.99674        0.98893       -0.34080
C          4.41441        0.25896       -1.37521
H          4.96857        0.11195       -2.30678
C          3.12473       -0.26702       -1.27645
C          2.53351       -0.96950       -2.46032
H          1.48625       -0.67646       -2.61154
H          2.55881       -2.06697       -2.35295
H          3.09228       -0.72215       -3.37274
C          6.36530        1.58762       -0.48122
H          6.29875        2.65010       -0.76849
H          6.95458        1.07310       -1.25345
H          6.92388        1.54197        0.46535
C          2.25689        0.91861        2.27819
H          1.16445        0.91596        2.18370
H          2.54429        1.90204        2.67380
H          2.54781        0.16403        3.02792
C         -2.40395       -0.08804        0.08240
C         -2.95362        0.66955       -0.97186
C         -4.23953        1.19011       -0.81288
H         -4.66200        1.78035       -1.63128
C         -4.99673        0.98893        0.34082
C         -4.41440        0.25896        1.37522
H         -4.96856        0.11195        2.30679
C         -3.12472       -0.26703        1.27646
C         -2.53350       -0.96949        2.46033
H         -2.55881       -2.06697        2.35297
H         -3.09226       -0.72213        3.37275
H         -1.48623       -0.67646        2.61154
C         -6.36531        1.58759        0.48118
H         -6.95417        1.07388        1.25426
H         -6.92431        1.54076       -0.46509
H         -6.29878        2.65042        0.76716
C         -2.25689        0.91861       -2.27818
H         -2.54431        1.90203       -2.67381
H         -2.54780        0.16401       -3.02791
H         -1.16446        0.91598       -2.18369
C          1.35733       -2.84113        1.31680
C          2.88899       -2.74636        1.31451
H          3.30781       -3.03302        0.33686
H          3.25748       -1.74108        1.54687
H          3.29907       -3.43581        2.06853
C          1.00937       -4.32987        1.25916
H         -0.07376       -4.51030        1.27383
H          1.43091       -4.81819        0.36788
H          1.43496       -4.83104        2.14178
C          0.80355       -2.27887        2.62419
H         -0.24669       -2.56379        2.77501
H          1.37242       -2.68001        3.47695
H          0.87193       -1.18563        2.66076
C         -1.35733       -2.84113       -1.31680
C         -1.00937       -4.32987       -1.25916
H         -1.43090       -4.81819       -0.36789
H         -1.43495       -4.83104       -2.14179
H          0.07377       -4.51030       -1.27383
C         -2.88899       -2.74636       -1.31451
H         -3.30780       -3.03303       -0.33686
H         -3.25747       -1.74108       -1.54686
H         -3.29906       -3.43580       -2.06854
C         -0.80355       -2.27886       -2.62419
H          0.24669       -2.56378       -2.77501
H         -1.37241       -2.68000       -3.47695
H         -0.87192       -1.18563       -2.66076
Au        -0.00000        2.20421        0.00000
H         -0.00001        3.81543        0.00001
