61
5s_dibutyl_terbutyl_auh.log	Energy: -623291.6751721
N          0.49103        1.08334       -0.16771
C         -0.28965        0.00000       -0.00000
N          0.49102       -1.08334        0.16770
C          1.90406        0.75807        0.12794
H          2.55351        1.26947       -0.59036
C          1.90406       -0.75807       -0.12794
H          2.55351       -1.26948        0.59036
C         -0.01899       -2.37642        0.72207
C         -0.86948       -2.12659        1.97524
H         -1.76849       -1.53273        1.74890
H         -1.19799       -3.09371        2.38316
H         -0.29494       -1.60394        2.75144
C          1.14241       -3.26516        1.16826
H          0.72232       -4.18717        1.59321
H          1.81058       -3.55528        0.35280
H          1.73801       -2.78628        1.96025
C         -0.87883       -3.09394       -0.32089
H         -0.31286       -3.33548       -1.23060
H         -1.27362       -4.03222        0.09614
H         -1.73382       -2.45968       -0.60485
C         -0.01899        2.37642       -0.72207
C         -0.86948        2.12659       -1.97524
H         -1.76848        1.53273       -1.74890
H         -1.19799        3.09371       -2.38316
H         -0.29493        1.60395       -2.75145
C         -0.87883        3.09394        0.32089
H         -0.31285        3.33548        1.23060
H         -1.27361        4.03222       -0.09614
H         -1.73382        2.45968        0.60485
C          1.14242        3.26516       -1.16826
H          1.73801        2.78628       -1.96025
H          0.72233        4.18717       -1.59321
H          1.81058        3.55528       -0.35280
C          2.41954       -1.13181       -1.56008
C          2.47457       -2.64261       -1.79173
H          2.86242       -2.84098       -2.80254
H          3.15124       -3.14120       -1.08115
H          1.48645       -3.11288       -1.72588
C          1.55231       -0.51059       -2.65244
H          1.59714        0.58669       -2.63666
H          1.90095       -0.83936       -3.64359
H          0.49867       -0.81056       -2.54826
C          3.86266       -0.62684       -1.69849
H          4.50750       -1.02742       -0.90045
H          4.28010       -0.96079       -2.66034
H          3.94198        0.46951       -1.67866
C          2.41954        1.13181        1.56008
C          3.86266        0.62684        1.69849
H          4.28010        0.96078        2.66034
H          3.94198       -0.46951        1.67866
H          4.50750        1.02742        0.90045
C          2.47457        2.64261        1.79173
H          2.86242        2.84098        2.80254
H          3.15125        3.14120        1.08115
H          1.48646        3.11288        1.72588
C          1.55230        0.51059        2.65244
H          1.59714       -0.58669        2.63666
H          1.90095        0.83936        3.64359
H          0.49867        0.81057        2.54826
Au        -2.39405        0.00000       -0.00000
H         -4.00363        0.00000        0.00000
