39
5s_dih_dIphme_auh.log	Energy: -567854.7880242
N          1.08556       -1.43387       -0.01210
C         -0.00001       -0.63668       -0.00002
N         -1.08559       -1.43386        0.01205
C          0.73720       -2.84427       -0.18213
H          1.35174       -3.48043        0.46926
H          0.90096       -3.15602       -1.22805
C         -0.73722       -2.84428        0.18205
H         -1.35176       -3.48042       -0.46936
H         -0.90097       -3.15605        1.22796
C          2.43616       -1.01901        0.00719
C          2.84662        0.06986        0.78434
C          4.17974        0.45689        0.78714
H          4.47614        1.31628        1.39456
C          5.14856       -0.23245        0.04533
C          4.72710       -1.33557       -0.70033
H          5.45731       -1.90093       -1.28538
C          3.39055       -1.72867       -0.72486
C          6.58230        0.20946        0.05433
H          6.69845        1.18218       -0.45065
H          7.23127       -0.51333       -0.45958
H          6.95742        0.33327        1.08206
C         -2.43619       -1.01901       -0.00720
C         -2.84664        0.06996       -0.78420
C         -4.17977        0.45699       -0.78697
H         -4.47617        1.31644       -1.39430
C         -5.14859       -0.23245       -0.04526
C         -4.72714       -1.33568        0.70025
H         -5.45735       -1.90114        1.28520
C         -3.39059       -1.72877        0.72474
C         -6.58231        0.20954       -0.05404
H         -7.23150       -0.51407        0.45843
H         -6.95705        0.33514       -1.08168
H         -6.69858        1.18140        0.45258
Au         0.00002        1.44685       -0.00003
H          0.00005        3.05604       -0.00007
H         -2.11342        0.61552       -1.38122
H         -3.09753       -2.58581        1.33346
H          2.11340        0.61534        1.38143
H          3.09747       -2.58562       -1.33371
