51
5s_dih_dImes_auh.log	Energy: -666596.8345835
N         -1.08327        1.34997        0.06228
C         -0.00014        0.56592        0.02875
N          1.08257        1.34893        0.08715
C         -0.76649        2.77294        0.18761
H         -1.16268        3.17112        1.13614
H         -1.22717        3.34844       -0.63020
C          0.76532        2.77658        0.13356
H          1.16081        3.28643       -0.76017
H          1.22634        3.24938        1.01464
C         -2.42583        0.87783        0.05143
C         -3.03238        0.50929        1.26072
C         -4.35972        0.07933        1.22621
H         -4.84152       -0.21890        2.16178
C         -5.07954        0.00552        0.03081
C         -4.43282        0.35723       -1.15701
H         -4.97190        0.27742       -2.10538
C         -3.10674        0.79167       -1.17101
C         -2.40000        1.09635       -2.45790
H         -1.56503        0.39313       -2.61015
H         -1.97268        2.11144       -2.46813
H         -3.08225        1.00891       -3.31385
C         -6.51623       -0.42904        0.02472
H         -6.72361       -1.14470        0.83323
H         -6.79033       -0.90092       -0.92966
H         -7.18834        0.43346        0.16982
C         -2.24838        0.51235        2.53850
H         -1.47413       -0.27261        2.50736
H         -2.89789        0.31934        3.40260
H         -1.72948        1.46862        2.70660
C          2.42537        0.87853        0.05175
C          3.05007        0.68344       -1.18811
C          4.37726        0.25179       -1.19503
H          4.87308        0.08759       -2.15606
C          5.07935        0.00947       -0.01135
C          4.41472        0.19107        1.20446
H          4.93987       -0.02161        2.14007
C          3.08817        0.62080        1.25988
C          2.36142        0.74123        2.56579
H          1.90405        1.73429        2.69757
H          3.03752        0.56442        3.41277
H          1.54557        0.00158        2.61652
C          6.51618       -0.42334       -0.04495
H          6.77107       -1.04114        0.82802
H          7.18999        0.44995       -0.03715
H          6.74125       -1.00212       -0.95220
C          2.28493        0.86860       -2.46407
H          2.94213        0.76834       -3.33802
H          1.79474        1.85311       -2.51684
H          1.49005        0.10818       -2.54196
Au         0.00060       -1.49677       -0.09334
H          0.00114       -3.10553       -0.18806
