37
5s_dih_dIterbutyl_auh.log	Energy: -425836.8507381
N          1.09079        1.38940        0.07977
C         -0.00000        0.60714       -0.00000
N         -1.09079        1.38940       -0.07978
C          0.74542        2.79229       -0.13583
H          0.96929        3.08774       -1.17786
H          1.29242        3.46613        0.53398
C         -0.74542        2.79229        0.13582
H         -0.96929        3.08774        1.17785
H         -1.29243        3.46613       -0.53399
C         -2.49490        0.91066       -0.00629
C         -2.77619       -0.03962       -1.16962
H         -2.13144       -0.93169       -1.12296
H         -3.82418       -0.37221       -1.13411
H         -2.60061        0.46553       -2.13138
C         -3.44192        2.10564       -0.12861
H         -4.47565        1.73502       -0.09413
H         -3.32491        2.82453        0.69556
H         -3.31336        2.63458       -1.08493
C         -2.72951        0.22010        1.33886
H         -2.50829        0.90388        2.17350
H         -3.77793       -0.10146        1.42668
H         -2.08504       -0.66759        1.43460
C          2.49490        0.91066        0.00629
C          2.77619       -0.03961        1.16962
H          2.13143       -0.93168        1.12297
H          3.82417       -0.37221        1.13412
H          2.60061        0.46554        2.13138
C          2.72951        0.22010       -1.33886
H          2.50829        0.90387       -2.17350
H          3.77793       -0.10146       -1.42668
H          2.08505       -0.66759       -1.43459
C          3.44192        2.10564        0.12861
H          3.31336        2.63459        1.08492
H          4.47565        1.73503        0.09413
H          3.32491        2.82454       -0.69557
Au         0.00000       -1.49305       -0.00000
H          0.00000       -3.10159       -0.00000
