85
5s_dibutyl_ad_auh.log	Energy: -914938.6042124
N         -1.08476       -0.71965       -0.15588
C         -0.00000        0.06127        0.00000
N          1.08476       -0.71965        0.15588
C         -0.68722       -2.13282       -0.34530
H         -1.38807       -2.78181        0.19016
C          0.68722       -2.13282        0.34530
H          1.38807       -2.78181       -0.19016
C          2.47554       -0.20902        0.00653
C          2.86200        0.66221        1.21317
C          3.47816       -1.36362       -0.14397
C          2.61119        0.64423       -1.27312
H          2.76898        0.08202        2.14392
H          2.14383        1.49747        1.28388
C          4.28746        1.19343        1.06182
H          3.22809       -1.95686       -1.04000
H          3.43453       -2.03884        0.71617
C          4.90727       -0.82391       -0.27685
H          1.89441        1.48128       -1.23903
H          2.34984        0.03163       -2.14902
C          4.03014        1.19683       -1.41975
H          4.53648        1.80320        1.94563
C          5.25828        0.01460        0.95505
C          4.37421        2.05422       -0.20019
H          5.59504       -1.68265       -0.34889
C          5.02073        0.03889       -1.53272
H          4.06976        1.81558       -2.33102
H          5.20424       -0.60580        1.86616
H          6.29632        0.37905        0.87717
H          3.67379        2.90200       -0.12560
H          5.38828        2.47524       -0.30599
H          6.05028        0.41929       -1.64235
H          4.80216       -0.56445       -2.43021
C         -2.47554       -0.20902       -0.00653
C         -2.86200        0.66221       -1.21317
C         -3.47816       -1.36362        0.14397
C         -2.61119        0.64423        1.27312
H         -2.76898        0.08202       -2.14392
H         -2.14383        1.49747       -1.28388
C         -4.28746        1.19343       -1.06182
H         -3.22809       -1.95686        1.04000
H         -3.43453       -2.03884       -0.71617
C         -4.90727       -0.82391        0.27685
H         -1.89441        1.48128        1.23903
H         -2.34984        0.03162        2.14902
C         -4.03014        1.19682        1.41975
H         -4.53648        1.80320       -1.94563
C         -5.25827        0.01460       -0.95505
C         -4.37421        2.05422        0.20019
H         -5.59504       -1.68265        0.34888
C         -5.02073        0.03889        1.53271
H         -4.06977        1.81558        2.33102
H         -5.20424       -0.60580       -1.86616
H         -6.29632        0.37905       -0.87717
H         -3.67379        2.90200        0.12560
H         -5.38828        2.47524        0.30599
H         -6.05028        0.41929        1.64234
H         -4.80216       -0.56445        2.43021
C         -0.62030       -2.64818       -1.82452
C         -0.10070       -4.09276       -1.80502
H         -0.13129       -4.50993       -2.82285
H          0.93878       -4.17494       -1.45675
H         -0.72430       -4.73605       -1.16437
C         -1.99177       -2.70111       -2.49998
H         -2.68274       -3.37686       -1.97350
H         -2.45928       -1.71241       -2.57855
H         -1.87606       -3.08869       -3.52370
C          0.30131       -1.78455       -2.68240
H          1.34340       -1.83075       -2.33885
H          0.28324       -2.13515       -3.72588
H         -0.01356       -0.73012       -2.67472
C          0.62030       -2.64818        1.82452
C          0.10070       -4.09276        1.80502
H         -0.93878       -4.17495        1.45675
H          0.72431       -4.73605        1.16437
H          0.13129       -4.50993        2.82285
C         -0.30132       -1.78455        2.68240
H         -1.34340       -1.83075        2.33885
H         -0.28324       -2.13515        3.72588
H          0.01356       -0.73012        2.67472
C          1.99177       -2.70111        2.49998
H          2.68275       -3.37686        1.97350
H          2.45928       -1.71240        2.57855
H          1.87606       -3.08869        3.52370
Au        -0.00000        2.16993        0.00000
H         -0.00000        3.77940        0.00000
