73
5u_dicf3_dipp_auh.log	Energy: -1234478.6969882
N          1.07215        0.53295       -0.03506
N         -1.07252        0.53217        0.03377
C          0.68249        1.85873       -0.03854
C         -3.00971       -0.34876        1.23031
C          0.00011       -0.29411        0.00014
C         -0.68380        1.85818        0.03474
C          3.05850       -0.08285        1.22682
C          2.41892        0.03043       -0.01650
C         -2.41925        0.02950        0.01641
C         -4.30947       -0.85698        1.17219
H         -4.80452       -1.16716        2.09509
C          4.30914       -0.85869       -1.17018
H          4.80424       -1.17092       -2.09236
C          4.35829       -0.59484        1.22872
H          4.88975       -0.70653        2.17588
C          3.00937       -0.35060       -1.22948
C         -3.05888       -0.08673       -1.22667
C          4.97754       -0.97655        0.04341
H          5.99331       -1.37798        0.06691
C         -4.97792       -0.97759       -0.04110
H         -5.99370       -1.37904       -0.06364
C         -4.35871       -0.59864       -1.22730
H         -4.89020       -0.71250       -2.17417
C         -2.28785       -0.23885        2.55785
H         -1.30362        0.21827        2.37103
C          2.28784       -0.24268       -2.55734
H          1.30238        0.21196       -2.37101
C          3.03282        0.66954       -3.53140
H          2.46178        0.77816       -4.46640
H          4.01962        0.25724       -3.79412
H          3.18920        1.67061       -3.10431
C         -3.03439        0.67120        3.53271
H         -2.46293        0.78067        4.46734
H         -4.01998        0.25648        3.79606
H         -3.19328        1.67210        3.10623
C          2.03669       -1.62850       -3.15179
H          1.45346       -1.54881       -4.08213
H          2.98370       -2.13735       -3.39110
H          1.47901       -2.26456       -2.44596
C         -2.03318       -1.62422        3.15194
H         -2.97898       -2.13523        3.39144
H         -1.47433       -2.25897        2.44584
H         -1.44979       -1.54335        4.08209
C          2.35490        0.25319        2.52711
H          1.46177        0.85053        2.28616
C          1.87170       -1.03090        3.20487
H          1.23440       -1.62341        2.52936
H          2.72442       -1.66390        3.49681
H          1.29440       -0.79711        4.11313
C          3.21502        1.10114        3.45997
H          3.55602        2.02166        2.96439
H          2.63761        1.38675        4.35239
H          4.10257        0.55184        3.81006
C         -2.35519        0.24578       -2.52782
H         -1.46325        0.84558       -2.28854
C         -3.21628        1.08866       -3.46436
H         -2.63848        1.37287       -4.35698
H         -4.10197        0.53600       -3.81388
H         -3.56020        2.00984       -2.97207
C         -1.86952       -1.03997       -3.20070
H         -1.23145       -1.62903       -2.52289
H         -2.72109       -1.67544       -3.49061
H         -1.29231       -0.80849       -4.10961
Au         0.00151       -2.35977        0.00196
C         -1.65611        3.00609        0.06324
C          1.65299        3.00836       -0.06849
F          1.11609        4.06619       -0.66634
F          2.75867        2.68934       -0.73657
F          2.01724        3.36975        1.16331
F         -1.11457        4.07148        0.64306
F         -2.75325        2.69200        0.74772
F         -2.03565        3.35317       -1.16806
H          0.00274       -3.96818        0.00331
