35
5u_dicl_tbu_auh.log	Energy: -1000670.3272710
N          0.84890       -1.09682       -0.00070
N          0.84885        1.09679       -0.00052
C          2.16894       -0.68240       -0.00017
C          0.03947       -0.00003       -0.00065
C          2.16890        0.68245       -0.00012
Au        -2.07865       -0.00002        0.00059
C          0.28533        2.49846       -0.00085
C          0.28542       -2.49851       -0.00100
C          1.36905       -3.57301       -0.00219
H          2.00435       -3.53672       -0.89624
H          2.00350       -3.53955        0.89256
H          0.84862       -4.54094       -0.00397
C         -0.54996       -2.67537       -1.26900
H         -1.39433       -1.96980       -1.30398
H          0.07265       -2.52779       -2.16430
H         -0.95739       -3.69617       -1.29407
C         -0.54823       -2.67632        1.26799
H         -1.39276       -1.97099        1.30431
H         -0.95529       -3.69728        1.29317
H          0.07553       -2.52890        2.16250
C          1.36895        3.57300       -0.00171
H          2.00391        3.53881        0.89264
H          2.00374        3.53749       -0.89615
H          0.84848        4.54090       -0.00237
C         -0.54953        2.67526       -1.26922
H          0.07339        2.52724       -2.16422
H         -1.39406        1.96989       -1.30428
H         -0.95667        3.69617       -1.29474
C         -0.54895        2.67633        1.26772
H         -1.39346        1.97096        1.30370
H          0.07431        2.52910        2.16261
H         -0.95609        3.69726        1.29251
Cl         3.60201       -1.60371        0.00121
Cl         3.60187        1.60390        0.00088
H         -3.68165        0.00001        0.00194
