55
5u_dicf3_mes_auh.log	Energy: -1086737.9584326
N         -1.07581        0.58781        0.04299
N          1.07134        0.54407       -0.00774
C         -0.01747       -0.25930        0.00917
Au        -0.05399       -2.32051       -0.01162
C         -2.42350        0.09072        0.01807
C         -3.06457       -0.02404       -1.21895
C         -3.02239       -0.28614        1.22385
C         -4.36347       -0.53331       -1.22437
C         -4.32145       -0.79022        1.16426
C         -5.00692       -0.92296       -0.04671
H         -4.88457       -0.63422       -2.18027
H         -4.81068       -1.09213        2.09435
C          2.41104        0.02775       -0.01104
C          3.01038       -0.27589       -1.23916
C          3.04246       -0.18960        1.21824
C          4.30872       -0.78312       -1.21043
C          4.34209       -0.69797        1.19057
C          4.99163       -0.99725       -0.00926
H          4.79857       -1.02519       -2.15754
H          4.85689       -0.87438        2.13882
C         -2.27991       -0.17288        2.52006
H         -1.42803       -0.87296        2.53661
H         -1.87629        0.84056        2.67212
H         -2.93290       -0.41046        3.36965
C         -2.36599        0.36608       -2.48695
H         -2.08070        1.43016       -2.48868
H         -1.44344       -0.22194       -2.62032
H         -3.00952        0.19052       -3.35855
C         -6.38849       -1.50700       -0.08365
H         -6.95573       -1.14919       -0.95454
H         -6.34180       -2.60669       -0.14991
H         -6.95620       -1.25828        0.82450
C          2.32865        0.06727        2.51082
H          1.98046        1.10808        2.58680
H          1.44595       -0.58746        2.59754
H          2.98568       -0.13379        3.36672
C          2.26388       -0.09977       -2.52598
H          1.40215       -0.78675       -2.56411
H          1.87864        0.92494       -2.63627
H          2.90963       -0.31603       -3.38676
C          6.37557       -1.57681       -0.01145
H          6.91570       -1.33786        0.91534
H          6.33501       -2.67533       -0.09693
H          6.96640       -1.20535       -0.86130
C          0.70746        1.87639        0.00776
C         -0.65874        1.90762        0.05531
C          1.71594        2.98704       -0.03919
C         -1.58041        3.09959        0.10149
F          1.12087        4.16197       -0.20306
F          2.56525        2.81645       -1.05275
F          2.43745        3.04183        1.08127
F         -1.19520        3.95820        1.04227
F         -1.58851        3.74451       -1.06649
F         -2.82953        2.74179        0.37382
H         -0.07876       -3.92923       -0.02605
