59
5u_dif_ad_auh.log	Energy: -839573.9229036
N         -1.09245       -1.23420        0.00005
N          1.09245       -1.23420        0.00007
C         -0.67627       -2.54734        0.00001
C         -0.00000       -0.41874        0.00006
C          0.67627       -2.54734        0.00003
Au         0.00000        1.69170       -0.00001
C         -2.49782       -0.72689        0.00003
C         -2.72486        0.11905        1.26102
C         -3.52145       -1.87218        0.00012
C         -2.72487        0.11889       -1.26106
H         -2.56556       -0.51284        2.15128
H         -1.98157        0.93311        1.29636
C         -4.13935        0.70025        1.25149
H         -3.38297       -2.50888        0.88692
H         -3.38296       -2.50903       -0.88658
C         -4.94346       -1.29676        0.00008
H         -1.98158        0.93295       -1.29649
H         -2.56558       -0.51311       -2.15124
C         -4.13936        0.70009       -1.25159
H         -4.27080        1.32052        2.15268
C         -5.15754       -0.44056        1.24938
C         -4.32245        1.56415       -0.00011
H         -5.65242       -2.14056        0.00014
C         -5.15754       -0.44072       -1.24933
H         -4.27082        1.32025       -2.15286
H         -6.18465       -0.03944        1.26081
H         -5.04213       -1.05550        2.15794
H         -3.58926        2.38740       -0.00016
H         -5.32621        2.02070       -0.00013
H         -5.04214       -1.05578       -2.15781
H         -6.18466       -0.03961       -1.26080
C          2.49782       -0.72689        0.00005
C          2.72485        0.11891       -1.26104
C          3.52145       -1.87219        0.00009
C          2.72487        0.11903        1.26104
H          2.56555       -0.51307       -2.15123
H          1.98156        0.93297       -1.29645
C          4.13934        0.70011       -1.25158
H          3.38294       -2.50902       -0.88660
H          3.38300       -2.50888        0.88690
C          4.94346       -1.29676        0.00003
H          1.98159        0.93309        1.29640
H          2.56559       -0.51287        2.15130
C          4.13937        0.70022        1.25150
H          4.27078        1.32029       -2.15284
C          5.15752       -0.44070       -1.24936
C          4.32245        1.56415       -0.00008
H          5.65242       -2.14056        0.00006
C          5.15756       -0.44059        1.24935
H          4.27084        1.32048        2.15270
H          6.18464       -0.03959       -1.26084
H          5.04211       -1.05574       -2.15785
H          3.58926        2.38740       -0.00011
H          5.32621        2.02070       -0.00011
H          5.04217       -1.05554        2.15789
H          6.18467       -0.03946        1.26077
F         -1.46267       -3.59807       -0.00009
F          1.46267       -3.59807       -0.00000
H         -0.00000        3.29619       -0.00008
