65
5u_dinme2_mes_auh.log	Energy: -832283.7664618
N         -1.06986        0.66848       -0.01074
N          1.07005        0.66878        0.01071
C          0.00018       -0.15738       -0.00012
Au         0.00036       -2.22621       -0.00026
C         -2.42194        0.21394        0.00042
C         -3.14924        0.22337       -1.19620
C         -2.97715       -0.22986        1.20798
C         -4.47550       -0.20761       -1.15697
C         -4.30809       -0.65224        1.19604
C         -5.07314       -0.64765        0.02745
H         -5.05597       -0.20945       -2.08402
H         -4.75682       -1.00217        2.13005
C          2.42225        0.21458       -0.00014
C          2.97779       -0.22931       -1.20752
C          3.14934        0.22446        1.19662
C          4.30881       -0.65145       -1.19523
C          4.47567       -0.20630        1.15773
C          5.07361       -0.64652       -0.02647
H          4.75779       -1.00146       -2.12908
H          5.05598       -0.20779        2.08488
C         -2.15613       -0.28783        2.46080
H         -1.43462       -1.12039        2.39946
H         -1.56692        0.63008        2.61214
H         -2.79140       -0.44494        3.34266
C         -2.50472        0.65834       -2.47672
H         -2.25967        1.73099       -2.45002
H         -1.56442        0.11022       -2.64479
H         -3.16768        0.47822       -3.33327
C         -6.48908       -1.14560        0.03361
H         -7.10172       -0.63229       -0.72164
H         -6.52276       -2.22388       -0.19502
H         -6.96280       -1.00497        1.01578
C          2.50461        0.65994        2.47685
H          2.26009        1.73272        2.44968
H          1.56401        0.11229        2.64477
H          3.16723        0.47974        3.33365
C          2.15709       -0.28753       -2.46054
H          1.43583       -1.12033       -2.39940
H          1.56766        0.63021       -2.61200
H          2.79264       -0.44444       -3.34224
C          6.48965       -1.14420       -0.03224
H          7.10219       -0.63015        0.72259
H          6.52354       -2.22228        0.19729
H          6.96334       -1.00428       -1.01453
C          0.68669        2.01675        0.02463
C         -0.68685        2.01668       -0.02402
N          1.61375        3.03249        0.15502
N         -1.61392        3.03227       -0.15414
C          2.43532        3.38529       -0.97918
H          1.93186        4.08673       -1.67603
H          3.36527        3.86049       -0.62969
H          2.71980        2.48316       -1.53622
C          1.34933        4.09296        1.09427
H          2.30263        4.49767        1.47388
H          0.77957        4.94119        0.66507
H          0.78250        3.69871        1.94929
C         -1.35330        4.09088       -1.09642
H         -2.30794        4.49135       -1.47732
H         -0.78648        4.94224       -0.66952
H         -0.78499        3.69622       -1.95027
C         -2.43727        3.38494        0.97863
H         -1.93704        4.09079        1.67329
H         -3.36936        3.85489        0.62763
H         -2.71773        2.48332        1.53852
H          0.00045       -3.83761       -0.00034
