59
5u_dicl_ad_auh.log	Energy: -1291680.3974206
N         -1.09718       -1.07067       -0.00053
N          1.09716       -1.07054       -0.00071
C         -0.68241       -2.39083       -0.00062
C         -0.00005       -0.26170       -0.00053
C          0.68254       -2.39073       -0.00072
Au        -0.00006        1.86277       -0.00025
C         -2.49008       -0.50424       -0.00025
C         -2.67550        0.34689        1.26561
C         -3.58476       -1.57955       -0.00020
C         -2.67604        0.34743       -1.26563
H         -2.56271       -0.30162        2.15108
H         -1.88690        1.11567        1.31721
C         -4.04957        1.01760        1.25259
H         -3.49218       -2.22202        0.88736
H         -3.49265       -2.22157       -0.88814
C         -4.97173       -0.92090        0.00026
H         -1.88749        1.11625       -1.31725
H         -2.56366       -0.30068       -2.15144
C         -4.05013        1.01812       -1.25168
H         -4.14128        1.64557        2.15341
C         -5.13782       -0.05550        1.24933
C         -4.17412        1.89153        0.00067
H         -5.72522       -1.72528        0.00026
C         -5.13838       -0.05497       -1.24837
H         -4.14225        1.64648       -2.15218
H         -6.13814        0.40858        1.25810
H         -5.06270       -0.67686        2.15773
H         -3.38661        2.66307        0.00065
H         -5.14499        2.41436        0.00099
H         -5.06368       -0.67595       -2.15706
H         -6.13869        0.40912       -1.25649
C          2.49004       -0.50410       -0.00027
C          2.67604        0.34767       -1.26557
C          3.58470       -1.57945       -0.00033
C          2.67542        0.34693        1.26565
H          2.56366       -0.30036       -2.15144
H          1.88749        1.11650       -1.31715
C          4.05013        1.01834       -1.25154
H          3.49260       -2.22136       -0.88835
H          3.49209       -2.22207        0.88713
C          4.97167       -0.92081        0.00025
H          1.88684        1.11572        1.31726
H          2.56258       -0.30163        2.15108
C          4.04952        1.01760        1.25273
H          4.14229        1.64677       -2.15199
C          5.13837       -0.05477       -1.24830
C          4.17411        1.89164        0.00088
H          5.72516       -1.72520        0.00020
C          5.13774       -0.05553        1.24941
H          4.14122        1.64549        2.15360
H          6.13869        0.40930       -1.25635
H          5.06369       -0.67567       -2.15705
H          3.38664        2.66319        0.00092
H          5.14500        2.41444        0.00128
H          5.06257       -0.67697        2.15774
H          6.13806        0.40852        1.25825
Cl        -1.60256       -3.82521        0.00024
Cl         1.60302       -3.82490       -0.00029
H         -0.00008        3.46594       -0.00000
