49
5u_dih_dImes_auh.log	Energy: -665840.2086532
N          1.06893        1.37918        0.00620
C         -0.00004        0.54741        0.00226
N         -1.06919        1.37895        0.00654
C          2.42662        0.93117        0.00365
C          3.06285        0.71816       -1.22432
C          4.39131        0.28889       -1.20010
H          4.90417        0.11129       -2.14943
C          5.07236        0.06724       -0.00079
C          4.38922        0.27223        1.20188
H          4.90069        0.08112        2.14952
C          3.06214        0.70111        1.23038
C          2.31496        0.85922        2.52014
H          1.51631        0.10221        2.59065
H          1.83163        1.84530        2.59830
H          2.98370        0.73356        3.38167
C          6.50851       -0.36869        0.00183
H          6.79359       -0.82433       -0.95675
H          6.70429       -1.09912        0.80048
H          7.17919        0.48972        0.17342
C          2.31803        0.89309       -2.51326
H          1.52048        0.13612       -2.59580
H          2.98862        0.77999       -3.37510
H          1.83362        1.87953       -2.57904
C         -2.42680        0.93072        0.00451
C         -3.06269        0.70366        1.23087
C         -4.39033        0.27428        1.20257
H         -4.90234        0.08534        2.15026
C         -5.07236        0.06613        0.00060
C         -4.39008        0.28441       -1.19944
H         -4.90190        0.10346       -2.14879
C         -3.06244        0.71403       -1.22385
C         -2.31622        0.88571       -2.51242
H         -1.83208        1.87215       -2.58019
H         -2.98579        0.77010       -3.37472
H         -1.51830        0.12880       -2.59196
C         -6.50948       -0.36651       -0.00139
H         -6.74937       -0.96193       -0.89388
H         -7.18210        0.50758        0.00092
H         -6.75023       -0.96737        0.88720
C         -2.31671        0.86447        2.52099
H         -2.98634        0.74101        3.38215
H         -1.83309        1.85053        2.59745
H         -1.51841        0.10732        2.59406
C          0.67875        2.70614        0.01288
H          1.39904        3.51926        0.01680
C         -0.67928        2.70599        0.01306
H         -1.39974        3.51897        0.01716
Au         0.00020       -1.51599       -0.00746
H          0.00040       -3.12709       -0.01481
