35
5u_dif_tbu_auh.log	Energy: -548564.2581152
N          1.14730       -1.09372       -0.00002
N          1.14975        1.09114       -0.00005
C          2.46069       -0.67891        0.00008
C          0.33292       -0.00037       -0.00009
C          2.46222        0.67339        0.00008
Au        -1.77380        0.00198        0.00005
C          0.64748        2.50792       -0.00008
C          0.64180       -2.50936       -0.00008
C          1.79950       -3.50631       -0.00008
H          2.43232       -3.41560       -0.89284
H          2.43211       -3.41583        0.89286
H          1.36098       -4.51360       -0.00026
C         -0.18849       -2.72256       -1.26437
H         -1.05882       -2.04857       -1.29124
H          0.42157       -2.54871       -2.16353
H         -0.55511       -3.75887       -1.28821
C         -0.18859       -2.72265        1.26412
H          0.42140       -2.54885        2.16334
H         -1.05893       -2.04868        1.29098
H         -0.55520       -3.75897        1.28788
C          1.80751        3.50217       -0.00032
H          2.44027        3.40998        0.89233
H          2.43974        3.41013       -0.89336
H          1.37138        4.51049       -0.00011
C         -0.18260        2.72307       -1.26415
H          0.42674        2.54765       -2.16349
H         -1.05460        2.05120       -1.29069
H         -0.54667        3.76027       -1.28792
C         -0.18227        2.72319        1.26419
H         -0.54663        3.76031        1.28777
H         -1.05406        2.05109        1.29119
H          0.42740        2.54824        2.16340
F          3.51081       -1.46586        0.00015
F          3.51412        1.45798        0.00017
H         -3.37803        0.00377        0.00021
