69
5u_diph_mes_auh.log	Energy: -953918.4639637
N         -1.07009        0.15396       -0.03061
N          1.07011        0.15399        0.03086
C          0.00002       -0.67411        0.00011
Au         0.00001       -2.74200       -0.00011
C         -2.41746       -0.32325       -0.02264
C         -2.96709       -0.81642       -1.21345
C         -3.14077       -0.27663        1.17481
C         -4.29126       -1.25539       -1.18226
C         -4.46209       -0.72554        1.15314
C         -5.05477       -1.21750       -0.01219
H         -4.73802       -1.64204       -2.10257
H         -5.04212       -0.69669        2.07981
C          2.41750       -0.32318        0.02287
C          3.14073       -0.27669       -1.17463
C          2.96720       -0.81624        1.21370
C          4.46206       -0.72559       -1.15300
C          4.29138       -1.25520        1.18247
C          5.05482       -1.21742        0.01236
H          5.04202       -0.69684       -2.07970
H          4.73819       -1.64177        2.10279
C         -2.50720        0.22850        2.43531
H         -1.53425       -0.25765        2.60718
H         -2.32828        1.31489        2.38731
H         -3.14983        0.03019        3.30315
C         -2.15320       -0.88617       -2.46982
H         -1.60821        0.05220       -2.65900
H         -1.39537       -1.68387       -2.38676
H         -2.78792       -1.10215       -3.33935
C         -6.46443       -1.73226        0.00024
H         -6.95859       -1.57993       -0.97020
H         -6.48050       -2.81499        0.20876
H         -7.06801       -1.23988        0.77608
C          2.15339       -0.88593        2.47011
H          1.60873        0.05260        2.65950
H          1.39528       -1.68336        2.38701
H          2.78811       -1.10224        3.33956
C          2.50705        0.22826       -2.43515
H          1.53424       -0.25820       -2.60702
H          2.32781        1.31459       -2.38716
H          3.14976        0.03012       -3.30296
C          6.46449       -1.73215       -0.00012
H          6.95862       -1.57994        0.97036
H          6.48060       -2.81484       -0.20880
H          7.06808       -1.23963       -0.77586
C          0.68672        1.49381        0.01413
C         -0.68674        1.49379       -0.01386
C          1.62513        2.61992       -0.03627
C          1.38365        3.67950       -0.92553
C          2.76646        2.66686        0.77728
C          2.25611        4.76041       -0.99167
H          0.50352        3.64523       -1.57101
C          3.64135        3.74738        0.70154
H          2.97138        1.85482        1.47550
C          3.38985        4.79702       -0.17987
H          2.05379        5.57626       -1.68941
H          4.52662        3.76804        1.34110
H          4.07854        5.64316       -0.23671
C         -1.62516        2.61990        0.03631
C         -1.38380        3.67961        0.92545
C         -2.76644        2.66668       -0.77733
C         -2.25630        4.76051        0.99135
H         -0.50376        3.64545        1.57105
C         -3.64136        3.74720       -0.70183
H         -2.97131        1.85452       -1.47542
C         -3.38996        4.79698        0.17944
H         -2.05407        5.57645        1.68900
H         -4.52658        3.76774       -1.34146
H         -4.07868        5.64311        0.23608
H         -0.00000       -4.35262       -0.00033
