87
5u_diph_dipp_auh.log	Energy: -1101658.7639028
N         -1.06631       -0.17920        0.07922
N          1.06650       -0.17817       -0.07925
C         -0.68606       -1.51889        0.03492
C          3.17631        0.31331        1.01948
C         -0.00030        0.64978        0.00010
C          0.68749       -1.51823       -0.03531
C         -2.90972        0.72076        1.40002
C         -2.41168        0.29803        0.15656
C          2.41144        0.30031       -0.15633
C          4.49326        0.76884        0.92668
H          5.11640        0.79863        1.82308
C         -4.49387        0.76535       -0.92624
H         -5.11703        0.79510       -1.82262
C         -4.23252        1.17060        1.43828
H         -4.65354        1.51500        2.38572
C         -3.17652        0.31103       -1.01927
C          2.90913        0.72413       -1.39958
C         -5.01749        1.19016        0.29046
H         -6.04891        1.54664        0.34363
C          5.01650        1.19478       -0.28978
H          6.04761        1.55219       -0.34277
C          4.23153        1.17514       -1.43760
H          4.65225        1.52037       -2.38487
C          2.58306       -0.09133        2.35329
H          1.63541       -0.61319        2.15382
C         -2.58265       -0.09211       -2.35326
H         -1.63525       -0.61446       -2.15388
C         -3.47225       -1.06834       -3.11753
H         -2.97151       -1.39680       -4.04129
H         -4.42932       -0.60948       -3.41132
H         -3.69208       -1.96114       -2.51230
C          3.47296       -1.06872        3.11575
H          2.97280       -1.39821        4.03945
H          4.43034       -0.61043        3.40940
H          3.69217       -1.96083        2.50928
C         -2.24261        1.15542       -3.17130
H         -1.74429        0.87878       -4.11400
H         -3.15223        1.72403       -3.42190
H         -1.57411        1.82551       -2.60795
C          2.24379        1.15520        3.17315
H          3.15366        1.72335        3.42392
H          1.57503        1.82609        2.61110
H          1.74605        0.87744        4.11582
C         -2.07054        0.70867        2.66387
H         -1.09513        0.26365        2.41413
C         -1.80519        2.13073        3.15787
H         -1.32023        2.73471        2.37405
H         -2.74158        2.63397        3.44675
H         -1.14447        2.11452        4.03866
C         -2.69946       -0.15139        3.76032
H         -2.85533       -1.19058        3.43262
H         -2.04718       -0.17465        4.64693
H         -3.67455        0.24862        4.07973
C          2.07004        0.71179       -2.66349
H          1.09492        0.26604       -2.41393
C          2.69968       -0.14760       -3.76007
H          2.04748       -0.17117       -4.64672
H          3.67449        0.25320       -4.07931
H          2.85630       -1.18674       -3.43257
C          1.80374        2.13375       -3.15723
H          1.31819        2.73722       -2.37339
H          2.73979        2.63774       -3.44589
H          1.14316        2.11723       -4.03812
Au        -0.00171        2.71756        0.00028
C         -1.62412       -2.64110       -0.08042
C         -1.34858       -3.65815       -1.00924
C         -2.80497       -2.71878        0.67165
C         -2.22419       -4.72552       -1.17327
H         -0.44161       -3.59706       -1.61406
C         -3.68318       -3.78542        0.49879
H         -3.04237       -1.93895        1.39415
C         -3.39740       -4.79198       -0.42145
H         -1.99448       -5.50522       -1.90306
H         -4.59961       -3.82736        1.09167
H         -4.08975       -5.62622       -0.55610
C          1.62664       -2.63959        0.07964
C          1.35209       -3.65729        1.00803
C          2.80756       -2.71580       -0.67247
C          2.22877       -4.72385        1.17165
H          0.44505       -3.59735        1.61286
C          3.68686       -3.78160       -0.50000
H          3.04415       -1.93547       -1.39470
C          3.40207       -4.78881        0.41984
H          1.99983       -5.50407        1.90112
H          4.60334       -3.82239       -1.09288
H          4.09527       -5.62239        0.55419
H         -0.00293        4.32899        0.00041
