53
5u_dinme2_ptolu_auh.log	Energy: -733772.4300603
N         -1.03594        0.71144       -0.03858
N          1.10648        0.75019       -0.00338
C          0.04145       -0.09844       -0.02605
Au         0.03308       -2.17340       -0.04356
C         -2.37683        0.23729       -0.05201
C         -3.18744        0.45664       -1.16200
C         -2.87442       -0.45867        1.04893
C         -4.50145       -0.00322       -1.15949
C         -4.18515       -0.92097        1.03615
C         -5.02332       -0.69995       -0.06416
H         -5.13070        0.16966       -2.03647
H         -4.56513       -1.47136        1.90073
C          2.45926        0.31285       -0.04841
C          3.32661        0.82700       -1.01105
C          2.91439       -0.63318        0.86936
C          4.64811        0.39343       -1.04606
C          4.23497       -1.06606        0.81309
C          5.12586       -0.56258       -0.14195
H          5.32279        0.80033       -1.80398
H          4.57921       -1.81545        1.53049
C         -6.42584       -1.23287       -0.07933
H         -7.04744       -0.71629       -0.82412
H         -6.43126       -2.30648       -0.33034
H         -6.90747       -1.12738        0.90402
C          6.53946       -1.06056       -0.21426
H          6.94506       -1.26958        0.78649
H          6.59273       -2.00004       -0.78925
H          7.20007       -0.33420       -0.70870
C          0.69816        2.08546        0.03529
C         -0.67264        2.07389        0.01554
H          2.22565       -1.03484        1.61465
H         -2.22264       -0.64109        1.90499
H          2.96394        1.56781       -1.72395
H         -2.77961        0.96936       -2.03438
N          1.60715        3.12513        0.07661
N         -1.55651        3.13142        0.14000
C          1.19893        4.39205       -0.48095
H          0.52498        4.96969        0.17963
H          2.09708        4.99985       -0.67491
H          0.68273        4.23088       -1.43695
C          2.41818        3.23193        1.27229
H          3.30511        3.84817        1.06025
H          1.86531        3.69306        2.11564
H          2.77159        2.24121        1.58760
C         -2.23692        3.66052       -1.01863
H         -3.25121        3.23892       -1.15879
H         -2.34002        4.75662       -0.93096
H         -1.65141        3.44902       -1.92389
C         -2.26637        3.27548        1.39018
H         -2.53244        4.33476        1.54710
H         -3.20026        2.68011        1.43419
H         -1.61969        2.96287        2.22193
H          0.01148       -3.78413       -0.05147
