75
5u_dinme2_ad_auh.log	Energy: -883068.4114712
N         -1.09080       -0.81780        0.00100
N          1.09084       -0.81826        0.00046
C         -0.68550       -2.15609        0.00034
C          0.00018       -0.00580        0.00077
C          0.68497       -2.15628       -0.00016
Au         0.00060        2.11552       -0.00210
C         -2.48109       -0.27194        0.00134
C         -2.68132        0.58285        1.26391
C         -3.56884       -1.35839        0.00341
C         -2.68280        0.57978       -1.26307
H         -2.55946       -0.06113        2.15197
H         -1.89971        1.35911        1.31187
C         -4.06227        1.23792        1.25248
H         -3.47147       -1.99904        0.89073
H         -3.47261       -2.00146       -0.88227
C         -4.96236       -0.71301        0.00343
H         -1.90120        1.35589       -1.31372
H         -2.56197       -0.06634       -2.14972
C         -4.06376        1.23483       -1.25162
H         -4.16175        1.86674        2.15216
C         -5.13847        0.15278        1.25096
C         -4.19817        2.10858       -0.00057
H         -5.70946       -1.52399        0.00486
C         -5.13988        0.14962       -1.24611
H         -4.16438        1.86140       -2.15273
H         -6.14445        0.60509        1.26042
H         -5.05500       -0.46664        2.16029
H         -3.41923        2.88871       -0.00199
H         -5.17523        2.62027       -0.00062
H         -5.05740       -0.47211       -2.15396
H         -6.14591        0.60185       -1.25560
C          2.48140       -0.27294        0.00112
C          2.68365        0.57922       -1.26289
C          3.56894       -1.35966        0.00307
C          2.68153        0.58129        1.26410
H          2.56295       -0.06650       -2.14983
H          1.90224        1.35554       -1.31347
C          4.06476        1.23397       -1.25076
H          3.47297       -2.00220       -0.88301
H          3.47096       -2.00092        0.88990
C          4.96258       -0.71452        0.00385
H          1.90007        1.35770        1.31220
H          2.55930       -0.06304        2.15185
C          4.06259        1.23612        1.25334
H          4.16579        1.86086       -2.15161
C          5.14066        0.14854       -1.24532
C          4.19900        2.10722        0.00065
H          5.70952       -1.52567        0.00519
C          5.13855        0.15075        1.25174
H          4.16191        1.86458        2.15328
H          6.14677        0.60058       -1.25434
H          5.05833       -0.47284       -2.15342
H          3.42021        2.88750       -0.00069
H          5.17616        2.61872        0.00105
H          5.05467       -0.46898        2.16083
H          6.14464        0.60283        1.26167
N         -1.51422       -3.26255       -0.00050
N          1.51387       -3.26267       -0.00178
C         -1.77942       -3.97044       -1.22166
H         -1.18802       -4.90363       -1.31752
H         -2.84801       -4.24994       -1.29073
H         -1.54506       -3.33125       -2.08374
C         -1.78090       -3.97152        1.21971
H         -2.84951       -4.25132        1.28700
H         -1.18941       -4.90468        1.31558
H         -1.54794       -3.33306        2.08269
C          1.77725       -3.96978       -1.22387
H          2.84424       -4.25550       -1.29077
H          1.18043       -4.89922       -1.32324
H          1.54904       -3.32735       -2.08521
C          1.77482       -3.97563        1.21740
H          1.17802       -4.90564        1.31108
H          2.84176       -4.26142        1.28515
H          1.54466       -3.33737        2.08131
H          0.00089        3.72189       -0.00493
