57
5u_diph_ptolu_auh.log	Energy: -855406.5323758
N         -1.07145        0.11817       -0.01493
N          1.07145        0.11808        0.01490
C         -0.00003       -0.71334       -0.00001
Au        -0.00014       -2.78803       -0.00004
C         -2.41818       -0.34629        0.02149
C         -2.87495       -1.22220       -0.96140
C         -3.27248        0.07752        1.03637
C         -4.18981       -1.67294       -0.91946
C         -4.58810       -0.37399        1.05944
C         -5.06968       -1.25883        0.08793
H         -4.53891       -2.36551       -1.68961
H         -5.25398       -0.03585        1.85750
C          2.41815       -0.34647       -0.02147
C          3.27253        0.07736       -1.03628
C          2.87482       -1.22245        0.96140
C          4.58813       -0.37422       -1.05930
C          4.18966       -1.67325        0.91951
C          5.06961       -1.25914       -0.08781
H          5.25407       -0.03605       -1.85730
H          4.53868       -2.36586        1.68965
C         -6.47651       -1.77757        0.14092
H         -6.89877       -1.90111       -0.86711
H         -6.50891       -2.76520        0.63029
H         -7.13451       -1.10590        0.71024
C          6.47640       -1.77799       -0.14078
H          6.89851       -1.90193        0.86726
H          6.50877       -2.76544       -0.63051
H          7.13455       -1.10618       -0.70978
C          0.68552        1.45764        0.00975
C         -0.68542        1.45770       -0.00979
H          2.19382       -1.55313        1.74742
H         -2.90657        0.76111        1.80436
H          2.90670        0.76101       -1.80425
H         -2.19401       -1.55289       -1.74747
C          1.61680        2.59181        0.02360
C          1.43395        3.65690       -0.86976
C          2.68632        2.63916        0.92975
C          2.29819        4.74755       -0.85254
H          0.60730        3.62164       -1.58239
C          3.55139        3.72908        0.93925
H          2.83890        1.81650        1.63105
C          3.36019        4.78618        0.05015
H          2.14449        5.57021       -1.55467
H          4.38063        3.75333        1.64990
H          4.04107        5.64048        0.05977
C         -1.61659        2.59194       -0.02363
C         -1.43367        3.65697        0.86979
C         -2.68607        2.63946       -0.92982
C         -2.29779        4.74772        0.85259
H         -0.60706        3.62159        1.58246
C         -3.55102        3.72948       -0.93930
H         -2.83870        1.81687       -1.63119
C         -3.35974        4.78651       -0.05014
H         -2.14403        5.57033        1.55477
H         -4.38022        3.75386       -1.65000
H         -4.04053        5.64089       -0.05975
H         -0.00022       -4.39798       -0.00007
