55
5u_diph_tbu_auh.log	Energy: -713690.7253719
N         -0.17142       -1.08679        0.26484
N         -0.17143        1.08699        0.26450
C          1.15980       -0.68361        0.24075
C         -0.98716        0.00009        0.23587
C          1.15979        0.68382        0.24051
Au        -3.04903       -0.00003       -0.22733
C         -0.70283        2.48925        0.33686
C         -0.70272       -2.48911        0.33719
C          0.38443       -3.49090        0.72290
H          1.14114       -3.63568       -0.05568
H          0.89150       -3.20931        1.65615
H         -0.10919       -4.45857        0.88986
C         -1.27482       -2.85959       -1.02997
H         -2.09357       -2.17775       -1.30946
H         -0.49280       -2.81094       -1.80300
H         -1.67115       -3.88523       -1.00393
C         -1.77402       -2.55652        1.42839
H         -1.35416       -2.25375        2.39953
H         -2.63653       -1.91122        1.20470
H         -2.13438       -3.59181        1.51241
C          0.38437        3.49130        0.72181
H          0.89168        3.21023        1.65510
H          1.14091        3.63570       -0.05699
H         -0.10926        4.45904        0.88836
C         -1.27548        2.85945       -1.03015
H         -0.49368        2.81084       -1.80343
H         -2.09418        2.17739       -1.30926
H         -1.67203        3.88500       -1.00415
C         -1.77375        2.55662        1.42842
H         -2.63652        1.91165        1.20477
H         -1.35370        2.25334        2.39932
H         -2.13373        3.59200        1.51295
C          2.37928       -1.49788        0.05314
C          2.71784       -1.95254       -1.22764
C          3.25591       -1.74497        1.11406
C          3.89429       -2.66707       -1.43602
H          2.04674       -1.74070       -2.06362
C          4.43459       -2.45736        0.90592
H          3.00092       -1.38158        2.11205
C          4.75337       -2.92448       -0.36793
H          4.14580       -3.01911       -2.43916
H          5.10897       -2.64815        1.74392
H          5.67744       -3.48400       -0.53094
C          2.37936        1.49799        0.05333
C          3.25591        1.74457        1.11442
C          2.71817        1.95297       -1.22728
C          4.43478        2.45675        0.90663
H          3.00072        1.38093        2.11227
C          3.89480        2.66729       -1.43531
H          2.04714        1.74150       -2.06341
C          4.75382        2.92418       -0.36704
H          5.10911        2.64714        1.74476
H          4.14652        3.01956       -2.43832
H          5.67805        3.48353       -0.52977
H         -4.58719       -0.00019       -0.68477
