43
5u_diome_tbu_auh.log	Energy: -567704.0146524
N         -0.81424       -1.09109       -0.05259
N         -0.81464        1.09062        0.05216
C         -2.13939       -0.68060       -0.02975
C         -0.00007       -0.00006       -0.00044
C         -2.13965        0.67963        0.03015
Au         2.11018        0.00035        0.00038
O         -3.22018        1.47080        0.08314
O         -3.21958       -1.47225       -0.08189
C         -3.98005        1.52768       -1.11283
H         -3.37972        1.93564       -1.94328
H         -4.35180        0.52900       -1.39193
H         -4.82921        2.19506       -0.91789
C         -3.97951       -1.52822        1.11408
H         -4.82858       -2.19589        0.91965
H         -3.37912       -1.93523        1.94495
H         -4.35154       -0.52935        1.39216
C         -0.29459       -2.49472       -0.14785
C         -0.29566        2.49453        0.14666
C          0.52127        2.62103        1.43272
H         -0.10532        2.40205        2.31052
H          1.38063        1.93268        1.43093
H          0.90315        3.64808        1.52531
C         -1.42875        3.51865        0.19833
H         -2.03239        3.52337       -0.71913
H         -2.09551        3.37073        1.05633
H         -0.96112        4.50917        0.29094
C          0.55493        2.78286       -1.09015
H          1.42267        2.10751       -1.14902
H         -0.04366        2.66672       -2.00653
H          0.92579        3.81720       -1.04611
C         -1.42716       -3.51933       -0.20125
H         -2.03145       -3.52516        0.71573
H         -2.09343       -3.37099       -1.05958
H         -0.95894       -4.50953       -0.29442
C          0.55530       -2.78353        1.08934
H          1.42250       -2.10757        1.14936
H         -0.04402       -2.66861        2.00539
H          0.92697       -3.81754        1.04471
C          0.52319       -2.61993       -1.43352
H         -0.10313       -2.40117       -2.31156
H          1.38199       -1.93090       -1.43105
H          0.90598       -3.64663       -1.52628
H          3.71606        0.00068        0.00130
