59
5u_dih_dIad_auh.log	Energy: -716730.0360405
N         -1.07763       -1.37687       -0.00000
C          0.00000       -0.55013        0.00000
N          1.07763       -1.37687        0.00000
C          2.48495       -0.91906        0.00000
C          2.75966       -0.08208        1.25765
C          3.43822       -2.12061        0.00000
C          2.75966       -0.08208       -1.25764
H          2.55612       -0.69694        2.15083
H          2.06373        0.77336        1.28188
C          4.20777        0.40959        1.25137
H          3.25907       -2.74560       -0.89097
H          3.25907       -2.74560        0.89098
C          4.89261       -1.63591        0.00000
H          2.06373        0.77336       -1.28188
H          2.55612       -0.69694       -2.15082
C          4.20777        0.40959       -1.25136
H          4.37878        1.01994        2.15276
C          5.15391       -0.79276        1.24998
C          4.44806        1.25956        0.00000
H          5.55348       -2.51809        0.00001
C          5.15391       -0.79276       -1.24997
H          4.37878        1.01994       -2.15275
H          4.99977       -1.39949        2.15846
H          6.20376       -0.45550        1.26330
H          3.77094        2.12939        0.00000
H          5.47978        1.64931        0.00000
H          6.20377       -0.45550       -1.26329
H          4.99978       -1.39949       -2.15845
C         -2.48495       -0.91906       -0.00000
C         -2.75966       -0.08208       -1.25765
C         -3.43822       -2.12061       -0.00000
C         -2.75966       -0.08208        1.25764
H         -2.55612       -0.69694       -2.15083
H         -2.06373        0.77336       -1.28188
C         -4.20777        0.40959       -1.25137
H         -3.25907       -2.74560        0.89097
H         -3.25907       -2.74560       -0.89098
C         -4.89261       -1.63591       -0.00001
H         -2.06373        0.77336        1.28188
H         -2.55612       -0.69694        2.15082
C         -4.20777        0.40959        1.25136
H         -4.37878        1.01994       -2.15275
C         -5.15391       -0.79276       -1.24998
C         -4.44806        1.25956       -0.00000
H         -5.55348       -2.51809       -0.00001
C         -5.15391       -0.79276        1.24997
H         -4.37878        1.01994        2.15275
H         -4.99977       -1.39949       -2.15846
H         -6.20376       -0.45550       -1.26330
H         -3.77094        2.12939       -0.00000
H         -5.47978        1.64931       -0.00000
H         -6.20377       -0.45550        1.26329
H         -4.99978       -1.39949        2.15845
C          0.67810       -2.69671        0.00000
H          1.36791       -3.53175        0.00000
C         -0.67810       -2.69671       -0.00000
H         -1.36791       -3.53175       -0.00000
Au         0.00000        1.55059        0.00000
H          0.00000        3.15780        0.00000
