41
5u_dicf3_tbu_auh.log	Energy: -846506.5732137
N          0.35246       -1.09129       -0.03239
N          0.35293        1.09178        0.03082
C          1.67473       -0.68643        0.02595
C         -0.46019        0.00035       -0.00102
C          1.67491        0.68620       -0.02630
Au        -2.57669        0.00002        0.00078
C          2.86687        1.49323       -0.49439
C          2.86536       -1.49404        0.49583
C         -0.19775        2.48312        0.28325
C         -0.19809       -2.48243       -0.28616
C          0.89643       -3.49457       -0.61757
H          1.54450       -3.14820       -1.43363
H          1.50899       -3.78164        0.24085
H          0.39134       -4.40399       -0.96888
C         -1.09129       -2.41796       -1.52983
H         -1.96420       -1.76127       -1.39627
H         -0.51595       -2.06754       -2.40002
H         -1.46245       -3.42955       -1.74555
C         -0.96676       -2.92491        0.95397
H         -1.80330       -2.24085        1.16479
H         -1.37818       -3.93154        0.79232
H         -0.30006       -2.95686        1.82819
C          0.89613        3.49687        0.61206
H          1.54549        3.15264        1.42799
H          1.50754        3.78356       -0.24730
H          0.39026        4.40607        0.96277
C         -0.96816        2.92356       -0.95644
H         -0.30266        2.95440       -1.83162
H         -1.80492        2.23910       -1.16512
H         -1.37949        3.93038       -0.79560
C         -1.08949        2.41991        1.52803
H         -1.96172        1.76185        1.39650
H         -0.51271        2.07186        2.39822
H         -1.46187        3.43137        1.74222
F          3.76918       -0.68743        1.05001
F          3.48656       -2.19319       -0.44782
F          2.48240       -2.33718        1.46238
F          3.76968        0.68596       -1.04944
F          2.48575        2.33852       -1.45983
F          3.48893        2.18981        0.45048
H         -4.17882       -0.00033        0.00293
