75
5u_diome_dipp_auh.log	Energy: -955663.4215685
N         -1.06814        0.08099        0.76214
N          1.07011        0.07779        0.83010
C         -0.71821        0.32743        2.09509
C          3.06089        1.22273        0.03241
C          0.02157       -0.05642       -0.02196
C          0.64970        0.31385        2.12585
C         -3.02941        1.28938        0.00015
C         -2.41203        0.06104        0.27951
C          2.43933        0.02885        0.42490
C          4.39415        1.14745       -0.37840
H          4.90956        2.05604       -0.69859
C         -4.36903       -1.15364       -0.37116
H         -4.89796       -2.09545       -0.53274
C         -4.34636        1.25822       -0.46587
H         -4.85541        2.19580       -0.70076
C         -3.05457       -1.17644        0.10217
C          3.09167       -1.21242        0.41998
C         -5.00992        0.04988       -0.64828
H         -6.03762        0.04460       -1.01925
C          5.06847       -0.06880       -0.39499
H          6.10939       -0.10833       -0.72481
C          4.42318       -1.23686       -0.00141
H          4.96143       -2.18700       -0.02976
C          2.32380        2.54577        0.02778
H          1.30290        2.36008        0.39413
C         -2.34901       -2.49330        0.36093
H         -1.41975       -2.26861        0.90871
C         -3.17517       -3.44378        1.22558
H         -2.59462       -4.35067        1.45432
H         -4.09318       -3.76816        0.71152
H         -3.47289       -2.98198        2.17921
C          2.97193        3.54572        0.98381
H          2.39303        4.48202        1.01505
H          3.99687        3.79973        0.67012
H          3.02352        3.13662        2.00425
C         -1.95144       -3.15357       -0.96045
H         -1.37755       -4.07519       -0.77614
H         -2.84379       -3.41912       -1.54933
H         -1.33309       -2.47663       -1.57183
C          2.19171        3.09500       -1.39199
H          3.17650        3.32569       -1.82834
H          1.69108        2.36417       -2.04658
H          1.59839        4.02285       -1.39294
C         -2.28687        2.60227        0.13832
H         -1.32123        2.39084        0.62092
C         -1.97795        3.18362       -1.24193
H         -1.41149        2.46235       -1.85197
H         -2.90224        3.43560       -1.78585
H         -1.37902        4.10327       -1.14909
C         -3.02851        3.58807        1.03719
H         -3.20138        3.15456        2.03362
H         -2.44048        4.51055        1.16152
H         -4.00412        3.87512        0.61418
C          2.37212       -2.48887        0.80276
H          1.40464       -2.20352        1.24426
C          3.13306       -3.28431        1.86051
H          2.55187       -4.16708        2.16941
H          4.10103       -3.64739        1.48109
H          3.32989       -2.67117        2.75311
C          2.07059       -3.32324       -0.44287
H          1.49726       -2.73685       -1.17815
H          3.00064       -3.65649       -0.93024
H          1.48596       -4.21907       -0.17990
Au         0.11198       -0.24234       -2.08022
O          1.56882        0.49914        3.06712
O         -1.61021        0.64367        3.04191
C          1.10854        0.65708        4.39122
H          0.44698        1.53164        4.48454
H          0.56519       -0.24135        4.73000
H          2.00033        0.79692        5.01339
C         -2.41206       -0.41128        3.54915
H         -3.14228       -0.75004        2.79862
H         -1.78652       -1.26349        3.86417
H         -2.94906       -0.00859        4.41720
H          0.18743       -0.34224       -3.68582
