83
5u_dinme2_dipp_auh.log	Energy: -980024.0663256
N          1.06988        0.62653       -0.02511
N         -1.07009        0.62633        0.01820
C          0.68626        1.97422        0.00090
C         -3.02637       -0.18485        1.24008
C         -0.00004       -0.20000        0.00081
C         -0.68689        1.97394       -0.02186
C          3.10808        0.15248        1.20213
C          2.42658        0.18210       -0.02527
C         -2.42676        0.18180        0.02328
C         -4.35719       -0.61203        1.19687
H         -4.85210       -0.91719        2.12157
C          4.35675       -0.62545       -1.18985
H          4.85151       -0.94140       -2.11100
C          4.43668       -0.27677        1.19600
H          4.99309       -0.32130        2.13463
C          3.02595       -0.19874       -1.23783
C         -3.10803        0.13770       -1.20381
C          5.05592       -0.66174        0.01095
H          6.09457       -1.00065        0.02522
C         -5.05615       -0.66238       -0.00354
H         -6.09481       -1.00140       -0.01402
C         -4.43664       -0.29143       -1.19290
H         -4.99285       -0.34700       -2.13107
C         -2.27271       -0.17069        2.55679
H         -1.31058        0.33803        2.38440
C          2.27231       -0.19928       -2.55462
H          1.30967        0.31025       -2.38766
C          3.01483        0.55847       -3.65504
H          2.40145        0.59837       -4.56833
H          3.96115        0.06226       -3.92062
H          3.25385        1.59223       -3.36309
C         -3.01591        0.59771        3.64933
H         -2.40229        0.64813        4.56195
H         -3.96144        0.10304        3.92051
H         -3.25648        1.62797        3.34651
C          1.96192       -1.63024       -2.99652
H          1.36065       -1.62840       -3.91907
H          2.88994       -2.18936       -3.19602
H          1.40036       -2.17288       -2.21860
C         -1.96092       -1.59664        3.01367
H         -2.88845       -2.15450        3.21895
H         -1.39884       -2.14695        2.24153
H         -1.35970       -1.58457        3.93618
C          2.40321        0.49583        2.49809
H          1.49106        1.05402        2.23890
C          1.96356       -0.78633        3.20808
H          1.33966       -1.40927        2.54783
H          2.83619       -1.38813        3.50803
H          1.38365       -0.55144        4.11489
C          3.23692        1.39619        3.40410
H          3.55618        2.30708        2.87528
H          2.65153        1.69763        4.28656
H          4.13971        0.88604        3.77476
C         -2.40305        0.46571       -2.50367
H         -1.49039        1.02610       -2.25104
C         -3.23629        1.35621       -3.41982
H         -2.65080        1.64727       -4.30570
H         -4.13938        0.84234       -3.78460
H         -3.55509        2.27322       -2.90141
C         -1.96443       -0.82478       -3.19907
H         -1.34079       -1.44054       -2.53187
H         -2.83755       -1.42935       -3.49191
H         -1.38458       -0.60067       -4.10863
Au         0.00063       -2.27138        0.01182
N          1.60366        2.99313        0.16039
N         -1.60482        2.99089       -0.19073
C          2.42610        3.39325       -0.95588
H          1.92183        4.11484       -1.63077
H          3.35221        3.86031       -0.58614
H          2.71544        2.51259       -1.54183
C          1.32218        4.01451        1.13773
H          2.26940        4.44678        1.50054
H          0.70362        4.84928        0.75113
H          0.80138        3.57086        1.99777
C         -1.32894        3.99886       -1.18347
H         -2.27827        4.42249       -1.55109
H         -0.71275        4.84144       -0.81027
H         -0.80795        3.54448       -2.03774
C         -2.42208        3.40520        0.92420
H         -1.91342        4.13223        1.58998
H         -3.34804        3.87117        0.55277
H         -2.71213        2.53158        1.52027
H          0.00118       -3.88290        0.02045
