45
5u_diome_ptolu_auh.log	Energy: -709413.0492453
N          1.06071        0.91461        0.02954
N         -1.08564        0.98923        0.02255
C          0.71159        2.27179        0.03906
C         -3.34344        1.10905        0.94700
C         -0.03554        0.12142        0.02137
C         -0.65343        2.30714        0.03183
C          3.29510        0.95632        1.00169
C          2.40083        0.44244        0.06350
C         -2.45300        0.59179        0.00876
C         -4.67185        0.69581        0.93295
H         -5.36490        1.10476        1.67280
C          4.12973       -0.99195       -0.79938
H          4.44552       -1.76188       -1.50805
C          4.60756        0.49371        1.02332
H          5.30331        0.90033        1.76195
C          2.81943       -0.53001       -0.84514
C         -2.89192       -0.33081       -0.93985
C          5.04776       -0.49127        0.13220
C         -5.13312       -0.24113        0.00155
C         -4.21949       -0.74327       -0.93268
H         -4.55188       -1.47457       -1.67389
Au        -0.10715       -1.95472        0.05422
O         -1.55578        3.28240        0.02882
O          1.61503        3.26064        0.06543
C         -1.07922        4.60661       -0.06352
H         -0.40207        4.84917        0.76962
H         -0.54859        4.77168       -1.01619
H         -1.96279        5.25467       -0.02615
C          2.30366        3.49607       -1.15441
H          2.88646        2.61299       -1.46125
H          1.59513        3.76275       -1.95677
H          2.98827        4.33408       -0.97333
C          6.45026       -1.02097        0.18988
H          6.85100       -1.21094       -0.81678
H          7.12627       -0.32291        0.70351
H          6.48303       -1.97725        0.73785
C         -6.55539       -0.71876        0.01920
H         -6.94360       -0.86537       -0.99953
H         -6.63490       -1.68766        0.53961
H         -7.21441       -0.00948        0.53959
H          2.96211        1.71634        1.70947
H         -2.99579        1.83161        1.68609
H          2.11081       -0.92748       -1.57370
H         -2.18703       -0.73007       -1.67085
H         -0.15819       -3.56282        0.09020
