49
5u_dicl_mes_auh.log	Energy: -1240894.7698004
N         -1.07483        0.90921        0.00808
N          1.07471        0.90929       -0.00621
C         -0.00003        0.08302        0.00007
Au         0.00016       -1.97940       -0.00164
C         -2.43225        0.45908        0.01302
C         -3.10156        0.33975       -1.20995
C         -3.03328        0.15299        1.23885
C         -4.42459       -0.10161       -1.18064
C         -4.35779       -0.28510        1.21480
C         -5.06787       -0.42073        0.01863
H         -4.96608       -0.20485       -2.12502
H         -4.84711       -0.53216        2.16096
C          2.43215        0.45924       -0.01230
C          3.03412        0.15933       -1.23918
C          3.10052        0.33380        1.21056
C          4.35864       -0.27876       -1.21637
C          4.42360       -0.10733        1.18002
C          5.06783       -0.42035       -0.02035
H          4.84869       -0.52106       -2.16339
H          4.96439       -0.21527        2.12428
C         -2.26351        0.26655        2.51926
H         -1.44193       -0.46855        2.53853
H         -1.81312        1.26489        2.63531
H         -2.91083        0.07976        3.38587
C         -2.40377        0.65934       -2.49712
H         -2.08172        1.71257       -2.53008
H         -1.50344        0.03572       -2.61735
H         -3.06237        0.47962       -3.35670
C         -6.47793       -0.93400        0.01895
H         -7.05147       -0.54105       -0.83267
H         -6.48927       -2.03403       -0.05693
H         -7.00574       -0.66463        0.94499
C          2.40162        0.64665        2.49877
H          2.07674        1.69887        2.53573
H          1.50291        0.02016        2.61627
H          3.06046        0.46529        3.35782
C          2.26526        0.27947       -2.51955
H          1.44194       -0.45356       -2.54209
H          1.81740        1.27936       -2.63209
H          2.91258        0.09444       -3.38653
C          6.47792       -0.93352       -0.02213
H          7.05103       -0.54406        0.83138
H          6.48930       -2.03386        0.04921
H          7.00616       -0.66028       -0.94679
C          0.68087        2.23739       -0.00269
C         -0.68106        2.23735        0.00738
Cl         1.77377        3.52885       -0.01172
Cl        -1.77398        3.52877        0.01929
H          0.00033       -3.58907       -0.00275
