49
5u_dif_mes_auh.log	Energy: -788779.1303884
N         -1.07506        1.13853       -0.01955
N          1.07529        1.13838        0.02057
C          0.00006        0.30906        0.00022
Au        -0.00028       -1.75649       -0.00069
C         -2.43784        0.70368       -0.03782
C         -2.98584        0.24529       -1.24184
C         -3.16626        0.74666        1.15698
C         -4.31478       -0.18088       -1.22142
C         -4.49103        0.31182        1.12331
C         -5.08122       -0.15824       -0.05338
H         -4.76281       -0.54491       -2.15008
H         -5.07633        0.33426        2.04669
C          2.43803        0.70340        0.03847
C          3.16670        0.74821       -1.15613
C          2.98579        0.24311        1.24188
C          4.49145        0.31329       -1.12288
C          4.31472       -0.18309        1.22102
C          5.08140       -0.15864        0.05318
H          5.07693        0.33716       -2.04611
H          4.76256       -0.54856        2.14920
C         -2.52937        1.23098        2.42495
H         -1.59484        0.68490        2.62917
H         -2.28044        2.30286        2.36639
H         -3.20210        1.09027        3.28089
C         -2.16602        0.18104       -2.49440
H         -1.60629        1.11319       -2.66650
H         -1.42614       -0.63415       -2.42304
H         -2.80105       -0.00669       -3.36999
C         -6.49476       -0.66158       -0.05449
H         -6.97724       -0.50814       -1.03037
H         -6.52029       -1.74346        0.15723
H         -7.10245       -0.16270        0.71387
C          2.16585        0.17698        2.49426
H          1.60549        1.10857        2.66729
H          1.42649       -0.63861        2.42192
H          2.80091       -0.01130        3.36971
C          2.53012        1.23452       -2.42350
H          1.59528        0.68922       -2.62846
H          2.28180        2.30646       -2.36359
H          3.20280        1.09451       -3.27959
C          6.49492       -0.66202        0.05375
H          6.97688       -0.51113        1.03028
H          6.52054       -1.74335       -0.16079
H          7.10303       -0.16115       -0.71299
C          0.67690        2.45990        0.01218
C         -0.67653        2.45999       -0.01028
F          1.54085        3.44221        0.01928
F         -1.54037        3.44239       -0.01668
H         -0.00057       -3.36542       -0.00141
