37
5u_dih_dIphme_auh.log	Energy: -567097.1712364
N         -1.07091       -1.48803        0.01228
C          0.00000       -0.65136       -0.00001
N          1.07091       -1.48802       -0.01230
C         -2.43169       -1.07094        0.02498
C         -3.33880       -1.66240       -0.85113
C         -4.67392       -1.26675       -0.83343
H         -5.37806       -1.73316       -1.52721
C         -5.12385       -0.27251        0.04071
C         -4.19166        0.30715        0.91150
H         -4.51568        1.08453        1.60828
C         -2.85904       -0.08597        0.91556
C         -6.55377        0.18153        0.03717
H         -7.19412       -0.50149       -0.53807
H         -6.64505        1.18371       -0.41255
H         -6.95549        0.24854        1.05956
C          2.43170       -1.07094       -0.02499
C          3.33879       -1.66239        0.85114
C          4.67392       -1.26674        0.83345
H          5.37804       -1.73315        1.52724
C          5.12385       -0.27251       -0.04068
C          4.19168        0.30716       -0.91149
H          4.51570        1.08453       -1.60826
C          2.85905       -0.08596       -0.91556
C          6.55378        0.18152       -0.03714
H          6.64507        1.18370        0.41259
H          6.95550        0.24853       -1.05953
H          7.19413       -0.50151        0.53810
C         -0.67746       -2.81471        0.00676
H         -1.39191       -3.63201        0.03192
C          0.67747       -2.81471       -0.00678
H          1.39193       -3.63200       -0.03194
Au        -0.00000        1.42673       -0.00000
H         -0.00001        3.03563       -0.00000
H         -2.14302        0.37191        1.60010
H         -2.99732       -2.41781       -1.56224
H          2.14304        0.37191       -1.60011
H          2.99731       -2.41780        1.56224
