67
5u_diome_ad_auh.log	Energy: -858713.7846617
N          1.09222        1.00791       -0.00213
N         -1.09223        1.00791        0.00224
C          0.68084        2.33326       -0.00326
C         -0.00000        0.19382        0.00005
C         -0.68084        2.33326        0.00340
Au         0.00001       -1.92113        0.00009
O         -1.47362        3.41397       -0.01307
O          1.47362        3.41398        0.01320
C         -1.47779        4.17164        1.18540
H         -1.85389        3.57105        2.03063
H         -0.46682        4.53888        1.42328
H         -2.14948        5.02364        1.01985
C          1.47773        4.17169       -1.18524
H          1.85362        3.57107       -2.03053
H          0.46678        4.53906       -1.42299
H          2.14954        5.02362       -1.01974
C          2.48916        0.48500        0.02412
C          2.68748       -0.34253        1.30374
C          3.53926        1.60656        0.01914
C          2.72639       -0.38652       -1.21875
H          2.52828        0.31037        2.17879
H          1.92756       -1.14060        1.34490
C          4.08878       -0.95278        1.32695
H          3.39501        2.27296        0.88101
H          3.43444        2.22050       -0.88813
C          4.94998        1.00413        0.05406
H          1.96869       -1.18685       -1.25862
H          2.59586        0.23466       -2.12159
C          4.12783       -0.99654       -1.17577
H          4.19416       -1.56028        2.24039
C          5.12937        0.16718        1.32138
C          4.27264       -1.84208        0.09336
H          5.67483        1.83478        0.05131
C          5.17012        0.12184       -1.17561
H          4.26128       -1.63577       -2.06353
H          6.14865       -0.25273        1.35632
H          5.01070        0.80073        2.21668
H          3.52087       -2.64840        0.09568
H          5.26611       -2.32045        0.11686
H          5.08322        0.72273       -2.09697
H          6.18894       -0.30042       -1.16189
C         -2.48916        0.48501       -0.02410
C         -2.68737       -0.34247       -1.30377
C         -3.53928        1.60656       -0.01915
C         -2.72649       -0.38656        1.21870
H         -2.52810        0.31047       -2.17879
H         -1.92743       -1.14052       -1.34490
C         -4.08865       -0.95274       -1.32715
H         -3.39493        2.27306       -0.88092
H         -3.43464        2.22039        0.88822
C         -4.94999        1.00411       -0.05428
H         -1.96880       -1.18690        1.25861
H         -2.59605        0.23457        2.12158
C         -4.12793       -0.99660        1.17557
H         -4.19393       -1.56022       -2.24063
C         -5.12925        0.16720       -1.32165
C         -4.27261       -1.84209       -0.09360
H         -5.67485        1.83475       -0.05157
C         -5.17025        0.12176        1.17534
H         -4.26146       -1.63586        2.06329
H         -6.14853       -0.25271       -1.35670
H         -5.01049        0.80078       -2.21691
H         -3.52083       -2.64840       -0.09588
H         -5.26608       -2.32048       -0.11721
H         -5.08345        0.72263        2.09673
H         -6.18906       -0.30052        1.16150
H          0.00002       -3.52712        0.00013
