79
5u_diph_ad_auh.log	Energy: -1004701.0059881
N         -1.08866       -0.25205        0.00014
N          1.08867       -0.25206        0.00013
C         -0.68359       -1.58318        0.00011
C          0.00001        0.56274        0.00012
C          0.68358       -1.58319        0.00008
Au         0.00003        2.68257       -0.00004
C         -2.48009        0.29436        0.00008
C         -2.68515        1.14556        1.26357
C         -3.55406       -0.80048        0.00011
C         -2.68509        1.14542       -1.26351
H         -2.55671        0.50155        2.15053
H         -1.91137        1.92957        1.31154
C         -4.07327        1.78598        1.25205
H         -3.44777       -1.44462        0.88397
H         -3.44772       -1.44471       -0.88368
C         -4.95457       -0.17298        0.00004
H         -1.91130        1.92943       -1.31152
H         -2.55659        0.50132       -2.15040
C         -4.07321        1.78585       -1.25214
H         -4.17968        2.41252        2.15247
C         -5.13867        0.68995        1.24868
C         -4.21741        2.65668       -0.00009
H         -5.69179       -0.99243        0.00006
C         -5.13860        0.68981       -1.24871
H         -4.17957        2.41229       -2.15263
H         -6.14879        1.13283        1.25786
H         -5.05001        0.07029        2.15720
H         -3.44692        3.44518       -0.00012
H         -5.19976        3.15807       -0.00015
H         -5.04989        0.07006       -2.15716
H         -6.14872        1.13269       -1.25799
C          2.48010        0.29432        0.00008
C          2.68514        1.14532       -1.26354
C          3.55404       -0.80054        0.00018
C          2.68516        1.14556        1.26354
H          2.55665        0.50119       -2.15040
H          1.91137        1.92935       -1.31159
C          4.07328        1.78571       -1.25217
H          3.44771       -1.44481       -0.88358
H          3.44771       -1.44464        0.88407
C          4.95456       -0.17308        0.00012
H          1.91138        1.92959        1.31147
H          2.55668        0.50158        2.15053
C          4.07329        1.78596        1.25203
H          4.17967        2.41212       -2.15268
C          5.13864        0.68966       -1.24866
C          4.21747        2.65660       -0.00015
H          5.69177       -0.99255        0.00020
C          5.13865        0.68990        1.24873
H          4.17968        2.41253        2.15242
H          6.14878        1.13251       -1.25794
H          5.04994        0.06987       -2.15708
H          3.44700        3.44511       -0.00022
H          5.19983        3.15797       -0.00020
H          5.04996        0.07029        2.15727
H          6.14879        1.13276        1.25791
C         -1.48155       -2.82982        0.00004
C         -1.81511       -3.45690       -1.20540
C         -1.81519       -3.45698        1.20543
C         -2.49791       -4.67058       -1.20624
H         -1.53642       -2.98068       -2.14849
C         -2.49799       -4.67066        1.20615
H         -1.53657       -2.98081        2.14856
C         -2.84519       -5.27728       -0.00008
H         -2.75610       -5.14809       -2.15429
H         -2.75625       -5.14822        2.15415
H         -3.37993       -6.22998       -0.00012
C          1.48150       -2.82985        0.00003
C          1.81509       -3.45704        1.20541
C          1.81506       -3.45693       -1.20541
C          2.49783       -4.67076        1.20613
H          1.53645       -2.98088        2.14855
C          2.49781       -4.67065       -1.20626
H          1.53642       -2.98068       -2.14850
C          2.84503       -5.27737       -0.00010
H          2.75603       -5.14835        2.15413
H          2.75600       -5.14815       -2.15431
H          3.37972       -6.23010       -0.00014
H          0.00006        4.28822       -0.00019
