67
5u_dicl_dipp_auh.log	Energy: -1388635.4972491
N          1.07290        0.00006        0.81563
N         -1.07290        0.00009        0.81564
C          0.68153        0.00018        2.14322
C         -3.06017       -1.23469        0.15290
C          0.00000        0.00000       -0.01212
C         -0.68152        0.00020        2.14323
C          3.06001       -1.23484        0.15265
C          2.43077       -0.00002        0.36608
C         -2.43076        0.00009        0.36610
C         -4.38248       -1.20744       -0.29684
H         -4.90566       -2.14796       -0.48361
C          4.38248        1.20738       -0.29706
H          4.90568        2.14786       -0.48398
C          4.38232       -1.20768       -0.29710
H          4.90538       -2.14823       -0.48405
C          3.06018        1.23471        0.15268
C         -3.06002        1.23487        0.15246
C          5.03651       -0.00019       -0.51844
H          6.06964       -0.00026       -0.87388
C         -5.03651        0.00009       -0.51841
H         -6.06964        0.00009       -0.87384
C         -4.38233        1.20762       -0.29727
H         -4.90540        2.14813       -0.48437
C         -2.33660       -2.54967        0.35696
H         -1.35657       -2.32692        0.80626
C          2.33662        2.54973        0.35653
H          1.35660        2.32707        0.80589
C          3.07965        3.46266        1.32957
H          2.50311        4.38336        1.50817
H          4.06381        3.76200        0.93644
H          3.23974        2.96446        2.29769
C         -3.07961       -3.46243        1.33016
H         -2.50306       -4.38310        1.50891
H         -4.06377       -3.76184        0.93710
H         -3.23968       -2.96407        2.29820
C          2.06810        3.22753       -0.98744
H          1.48290        4.14962       -0.84582
H          3.00916        3.49849       -1.49179
H          1.50509        2.55926       -1.65818
C         -2.06810       -3.22770       -0.98691
H         -3.00916       -3.49874       -1.49119
H         -1.50510       -2.55953       -1.65777
H         -1.48288       -4.14976       -0.84514
C          2.33631       -2.54978        0.35652
H          1.35616       -2.32698        0.80552
C          2.06818       -3.22783       -0.98741
H          1.50535       -2.55967       -1.65842
H          3.00937       -3.49890       -1.49144
H          1.48291       -4.14989       -0.84578
C          3.07902       -3.46253        1.32997
H          3.23876       -2.96415        2.29806
H          2.50243       -4.38321        1.50853
H          4.06332       -3.76191        0.93723
C         -2.33633        2.54984        0.35612
H         -1.35618        2.32713        0.80516
C         -3.07905        3.46275        1.32941
H         -2.50246        4.38347        1.50782
H         -4.06335        3.76207        0.93661
H         -3.23880        2.96455        2.29758
C         -2.06819        3.22767       -0.98793
H         -1.50536        2.55939       -1.65882
H         -3.00938        3.49865       -1.49201
H         -1.48293        4.14975       -0.84645
Au        -0.00001       -0.00018       -2.07686
Cl         1.77713        0.00026        3.43189
Cl        -1.77712        0.00034        3.43190
H         -0.00001       -0.00033       -3.68592
