65
5u_dicf3_ad_auh.log	Energy: -1137515.8817550
N         -1.08657       -0.67910       -0.11703
N          1.08655       -0.67860        0.11883
C         -0.67647       -2.00188       -0.11948
C         -0.00019        0.13256        0.00119
C          0.67717       -2.00165        0.11992
Au        -0.00032        2.25625        0.00147
C          1.40915       -3.18896        0.70823
C         -1.40731       -3.19019       -0.70683
C         -2.48632       -0.11952       -0.01032
C         -2.56337        0.70096        1.29189
C         -3.57294       -1.19767        0.09555
C         -2.78086        0.75587       -1.23267
H         -2.37695        0.02749        2.14581
H         -1.77623        1.47148        1.30440
C         -3.92802        1.37726        1.41870
H         -3.37620       -1.85076        0.95933
H         -3.60379       -1.81844       -0.80370
C         -4.95499       -0.54277        0.24150
H         -1.99955        1.52803       -1.33198
H         -2.74701        0.12747       -2.13832
C         -4.15282        1.41554       -1.07552
H         -3.92565        1.99326        2.33230
C         -5.01492        0.30870        1.50663
C         -4.16353        2.26964        0.19607
H         -5.70244       -1.35069        0.29618
C         -5.23122        0.33468       -0.98148
H         -4.33715        2.05518       -1.95349
H         -6.01000        0.77327        1.60614
H         -4.86056       -0.31987        2.39976
H         -3.37920        3.04231        0.13799
H         -5.13014        2.79140        0.29159
H         -5.23659       -0.27872       -1.89827
H         -6.22942        0.79532       -0.89693
C          2.48605       -0.11883        0.01029
C          2.56108        0.70108       -1.29251
C          3.57246       -1.19681       -0.09742
C          2.78227        0.75720        1.23170
H          2.37364        0.02714       -2.14582
H          1.77370        1.47139       -1.30423
C          3.92537        1.37769       -1.42158
H          3.37438       -1.84970       -0.96105
H          3.60468       -1.81781        0.80162
C          4.95426       -0.54179       -0.24535
H          2.00100        1.52929        1.33179
H          2.74980        0.12925        2.13771
C          4.15388        1.41693        1.07225
H          3.92149        1.99337       -2.33540
C          5.01237        0.30932       -1.51081
C          4.16257        2.27057       -0.19965
H          5.70172       -1.34966       -0.30078
C          5.23213        0.33605        0.97698
H          4.33949        2.05689        1.94972
H          6.00722        0.77404       -1.61180
H          4.85688       -0.31951       -2.40356
H          3.37821        3.04314       -0.14066
H          5.12896        2.79244       -0.29684
H          5.23875       -0.27709        1.89395
H          6.23024        0.79663        0.89094
F         -0.53132       -4.10302       -1.12434
F         -2.25327       -3.80172        0.11506
F         -2.08159       -2.80710       -1.79892
F          0.53437       -4.10419        1.12281
F          2.07956       -2.80463        1.80230
F          2.25911       -3.79805       -0.11141
H         -0.00032        3.85828        0.00159
