41
5u_dime_tbu_auh.log	Energy: -473489.6451022
N         -1.14274        1.07976       -0.10912
N         -1.13246       -1.09064       -0.10922
C         -2.45382        0.67349        0.13594
C         -0.32546       -0.00156       -0.18902
C         -2.44740       -0.69682        0.13564
Au         1.76774        0.00830        0.14624
C         -3.61256       -1.57422        0.44076
H         -3.39806       -2.27174        1.26271
H         -4.45625       -0.95268        0.76230
H         -3.95732       -2.16209       -0.42068
C         -3.62657        1.54011        0.44282
H         -4.46336        0.91105        0.76777
H         -3.41639        2.24073        1.26323
H         -3.97927        2.12356       -0.41847
C         -0.59016       -2.48418       -0.24030
C         -0.61448        2.47863       -0.24035
C         -1.71257        3.48228       -0.59669
H         -2.29210        3.16045       -1.47386
H         -2.39519        3.69959        0.23148
H         -1.21918        4.42809       -0.85886
C          0.39258        2.53086       -1.39308
H          0.73837        3.56723       -1.51565
H          1.27365        1.89834       -1.21050
H         -0.07893        2.20592       -2.33276
C          0.03554        2.87631        1.08371
H         -0.69576        2.83357        1.90563
H          0.87211        2.20026        1.32141
H          0.42538        3.90300        1.01995
C         -1.67830       -3.49985       -0.59271
H         -2.35728       -3.72221        0.23711
H         -2.26246       -3.18638       -1.46982
H         -1.17540       -4.44109       -0.85325
C          0.41484       -2.52677       -1.39521
H         -0.06212       -2.20726       -2.33400
H          1.28965       -1.88503       -1.21487
H          0.77110       -3.55957       -1.51800
C          0.06666       -2.87406        1.08275
H          0.89686       -2.18947        1.31831
H         -0.66345       -2.83802        1.90605
H          0.46672       -3.89681        1.01900
H          3.32346        0.01562        0.53573
