43
5u_dime_ptolu_auh.log	Energy: -615206.1035237
N         -1.06854        1.25097       -0.07168
N          1.06851        1.25094       -0.07169
C         -0.00002        0.41941       -0.01437
Au         0.00001       -1.65018        0.11670
C         -2.41627        0.79445       -0.04529
C         -2.87047       -0.08028       -1.03197
C         -3.27543        1.20652        0.97045
C         -4.18300       -0.53591       -0.99503
C         -4.59094        0.75121        0.98925
C         -5.06728       -0.12953        0.01238
H         -4.52770       -1.22803       -1.76764
H         -5.25788        1.07631        1.79191
C          2.41625        0.79443       -0.04529
C          2.87060       -0.07991       -1.03224
C          3.27525        1.20615        0.97072
C          4.18314       -0.53551       -0.99530
C          4.59077        0.75088        0.98952
C          5.06727       -0.12949        0.01239
H          4.52798       -1.22732       -1.76812
H          5.25760        1.07571        1.79240
C         -6.47244       -0.65377        0.05589
H         -6.92763       -0.66762       -0.94568
H         -6.49052       -1.68895        0.43467
H         -7.11050       -0.04836        0.71473
C          6.47243       -0.65372        0.05593
H          7.11051       -0.04823        0.71468
H          6.49052       -1.68884        0.43485
H          6.92759       -0.66770       -0.94565
C          0.68234        2.58681       -0.17578
C         -0.68234        2.58683       -0.17578
C          1.64682        3.70592       -0.32136
H          1.12462        4.61187       -0.65625
H          2.15969        3.94600        0.62305
H          2.42477        3.46271       -1.06072
C         -1.64674        3.70599       -0.32141
H         -2.42485        3.46271       -1.06058
H         -2.15944        3.94634        0.62304
H         -1.12452        4.61183       -0.65658
H          2.90694        1.86575        1.75886
H         -2.90725        1.86640        1.75842
H          2.18513       -0.40711       -1.81565
H         -2.18488       -0.40776       -1.81517
H          0.00004       -3.25795        0.21365
