67
5u_dih_dIdipp_auh.log	Energy: -813932.7072363
N         -1.06810        0.00021        1.21619
C         -0.00002        0.00007        0.38293
N          1.06800        0.00021        1.21627
C         -2.42827        0.00014        0.77254
C         -3.06288       -1.23395        0.56085
C         -4.39194       -1.20661        0.13018
H         -4.91625       -2.14711       -0.05318
C         -5.05080        0.00001       -0.08016
C         -4.39194        1.20669        0.12982
H         -4.91626        2.14714       -0.05382
C         -3.06288        1.23416        0.56048
C         -2.33084        2.55070        0.72559
H         -1.36822        2.33841        1.21579
C         -2.33084       -2.55044        0.72637
H         -1.36816       -2.33798        1.21639
C          2.42820        0.00013        0.77273
C          3.06283        1.23414        0.56070
C          4.39193        1.20666        0.13014
H          4.91626        2.14710       -0.05348
C          5.05080       -0.00003       -0.07975
C          4.39192       -1.20664        0.13056
H          4.91625       -2.14715       -0.05274
C          3.06283       -1.23396        0.56112
C          2.33077       -2.55045        0.72660
H          1.36808       -2.33799        1.21660
C          2.33079        2.55069        0.72574
H          1.36807        2.33840        1.21574
C         -0.67920        0.00043        2.54236
H         -1.40047        0.00056        3.35425
C          0.67899        0.00043        2.54242
H          1.40020        0.00056        3.35436
C         -3.08884       -3.52798        1.62157
H         -3.30462       -3.08933        2.60781
H         -4.04746       -3.83282        1.17341
H         -2.49618       -4.44275        1.77624
C         -2.01715       -3.15606       -0.64280
H         -2.94252       -3.40957       -1.18409
H         -1.44547       -2.44869       -1.26471
H         -1.42476       -4.07793       -0.53282
C         -2.01700        3.15579       -0.64378
H         -2.94231        3.40910       -1.18526
H         -1.42460        4.07769       -0.53409
H         -1.44527        2.44817       -1.26536
C         -3.08891        3.52861        1.62034
H         -2.49623        4.44341        1.77473
H         -4.04746        3.83331        1.17196
H         -3.30482        3.09033        2.60672
C          2.01710       -3.15603       -0.64260
H          1.42469       -4.07789       -0.53265
H          1.44545       -2.44863       -1.26450
H          2.94248       -3.40953       -1.18387
C          3.08873       -3.52803        1.62179
H          4.04735       -3.83288        1.17364
H          3.30451       -3.08941        2.60804
H          2.49605       -4.44278        1.77643
C          2.01722        3.15588       -0.64365
H          1.44559        2.44832       -1.26539
H          1.42484        4.07779       -0.53401
H          2.94264        3.40921       -1.18494
C          3.08872        3.52851        1.62069
H          3.30441        3.09017        2.60709
H          4.04738        3.83320        1.17252
H          2.49606        4.44333        1.77502
H          6.08899       -0.00009       -0.42019
H         -6.08896       -0.00005       -0.42068
Au         0.00007       -0.00029       -1.68531
H          0.00013       -0.00058       -3.29558
