37
5u_dif_ptolu_auh.log	Energy: -690268.8429192
N         -1.07751        1.23515        0.00362
N          1.07751        1.23517       -0.00362
C          0.00001        0.40329       -0.00000
Au         0.00001       -1.67225        0.00001
C         -2.43915        0.81284       -0.01836
C         -2.85753       -0.12116       -0.96504
C         -3.34026        1.33251        0.90737
C         -4.18134       -0.54312       -0.96598
C         -4.66604        0.90978        0.88261
C         -5.10896       -0.03861       -0.04546
H         -4.50114       -1.28276       -1.70431
H         -5.36970        1.31998        1.61125
C          2.43915        0.81287        0.01838
C          3.34031        1.33263       -0.90728
C          2.85750       -0.12120        0.96499
C          4.66608        0.90992       -0.88250
C          4.18133       -0.54316        0.96595
C          5.10897       -0.03857        0.04550
H          5.36977        1.32021       -1.61106
H          4.50111       -1.28283        1.70424
C         -6.52827       -0.52400       -0.04478
H         -6.92717       -0.59875       -1.06736
H         -6.59596       -1.52867        0.40395
H         -7.18414        0.14262        0.53216
C          6.52823       -0.52409        0.04460
H          6.92600       -0.60279        1.06730
H          6.59630       -1.52704       -0.40793
H          7.18481        0.14462       -0.52913
C          0.67615        2.55722       -0.00275
C         -0.67618        2.55721        0.00275
H          2.14189       -0.51996        1.68587
H         -3.00665        2.05953        1.64979
H          3.00672        2.05973       -1.64963
H         -2.14194       -0.51987       -1.68596
F          1.52932        3.54808        0.01200
F         -1.52937        3.54804       -0.01197
H          0.00001       -3.27997        0.00002
