73
5u_dime_dipp_auh.log	Energy: -861458.5376039
N          1.06549        0.00008        1.01059
N         -1.06548        0.00010        1.01060
C          0.68263        0.00020        2.34929
C         -3.06344       -1.23303        0.36452
C          0.00000        0.00002        0.17784
C         -0.68261        0.00022        2.34929
C          3.06339       -1.23307        0.36437
C          2.42387        0.00003        0.56843
C         -2.42387        0.00007        0.56844
C         -4.39399       -1.20655       -0.06143
H         -4.91970       -2.14704       -0.24088
C          4.39399        1.20654       -0.06168
H          4.91969        2.14700       -0.24130
C          4.39394       -1.20660       -0.06159
H          4.91960       -2.14709       -0.24115
C          3.06344        1.23309        0.36428
C         -3.06338        1.23314        0.36417
C          5.05336       -0.00005       -0.27096
H          6.09264       -0.00009       -0.60810
C         -5.05336        0.00001       -0.27093
H         -6.09265       -0.00002       -0.60806
C         -4.39394        1.20660       -0.06178
H         -4.91960        2.14705       -0.24149
C         -2.33157       -2.54840        0.53836
H         -1.37656       -2.33288        1.04250
C          2.33158        2.54849        0.53790
H          1.37656        2.33306        1.04208
C          3.09967        3.53143        1.41850
H          2.50345        4.44169        1.58543
H          4.04709        3.84387        0.95225
H          3.33937        3.09591        2.40100
C         -3.09966       -3.53118        1.41914
H         -2.50344       -4.44141        1.58624
H         -4.04708       -3.84370        0.95295
H         -3.33936       -3.09549        2.40157
C          1.99687        3.15078       -0.82768
H          1.40467        4.07207       -0.71186
H          2.91460        3.40376       -1.38216
H          1.41817        2.44062       -1.43982
C         -1.99688       -3.15093       -0.82711
H         -2.91461       -3.40400       -1.38154
H         -1.41818       -2.44087       -1.43938
H         -1.40467       -4.07219       -0.71113
C          2.33149       -2.54844        0.53810
H          1.37641       -2.33292        1.04212
C          1.99696       -3.15095       -0.82742
H          1.41833       -2.44089       -1.43975
H          2.91474       -3.40403       -1.38175
H          1.40473       -4.07221       -0.71152
C          3.09947       -3.53123        1.41896
H          3.33903       -3.09555        2.40142
H          2.50324       -4.44147        1.58595
H          4.04696       -3.84372        0.95289
C         -2.33148        2.54853        0.53766
H         -1.37640        2.33310        1.04172
C         -3.09946        3.53148        1.41836
H         -2.50323        4.44175        1.58519
H         -4.04695        3.84389        0.95224
H         -3.33901        3.09598        2.40090
C         -1.99696        3.15081       -0.82796
H         -1.41834        2.44064       -1.44017
H         -2.91475        3.40379       -1.38233
H         -1.40473        4.07209       -0.71223
Au        -0.00001       -0.00017       -1.89108
C         -1.67072        0.00032        3.45482
H         -2.32414       -0.88482        3.40833
H         -1.15970        0.00042        4.42612
H         -2.32415        0.88545        3.40815
C          1.67074        0.00028        3.45481
H          1.15974        0.00037        4.42611
H          2.32416       -0.88486        3.40830
H          2.32417        0.88541        3.40816
H         -0.00001       -0.00032       -3.50213
