35
5u_dih_dIterbutyl_auh.log	Energy: -425084.0327267
N          1.07838        1.43941       -0.00005
C          0.00014        0.61300       -0.00004
N         -1.07791        1.43965       -0.00006
C         -0.67755        2.75889       -0.00012
H         -1.36487        3.59599       -0.00020
C          0.67830        2.75874       -0.00012
H          1.36580        3.59568       -0.00018
C          2.49702        0.98246        0.00002
C         -2.49665        0.98306        0.00001
C         -2.75136        0.15915       -1.26139
H         -2.11122       -0.73661       -1.28153
H         -3.80183       -0.16528       -1.28681
H         -2.54733        0.75611       -2.16313
C         -3.42091        2.19783       -0.00026
H         -4.46005        1.84162       -0.00020
H         -3.28607        2.82135        0.89628
H         -3.28609        2.82096       -0.89707
C         -2.75116        0.15980        1.26190
H         -3.80171       -0.16435        1.28791
H         -2.11118       -0.73607        1.28226
H         -2.54662        0.75717        2.16326
C          2.75143        0.15884        1.26167
H          2.11130       -0.73693        1.28185
H          3.80191       -0.16554        1.28747
H          2.54711        0.75600        2.16322
C          3.42157        2.19702        0.00005
H          4.46063        1.84055        0.00009
H          3.28693        2.82037       -0.89664
H          3.28686        2.82038        0.89671
C          2.75155        0.15881       -1.26159
H          2.54731        0.75594       -2.16317
H          3.80204       -0.16556       -1.28729
H          2.11143       -0.73697       -1.28180
Au        -0.00027       -1.48609       -0.00001
H         -0.00062       -3.09293       -0.00000
