51
5u_dinme2_tbu_auh.log	Energy: -592058.3939873
N          0.54393       -1.07966       -0.08250
N          0.52222        1.10034       -0.08427
C          1.87826       -0.66119       -0.02902
C         -0.27992        0.00166       -0.08966
C          1.86149        0.70927       -0.02732
Au        -2.38931       -0.01788        0.06651
C         -0.02985        2.49441       -0.13309
C          0.01814       -2.48353       -0.10528
C          1.12425       -3.53117       -0.23236
H          1.71810       -3.40817       -1.14710
H          1.79770       -3.55695        0.63220
H          0.62441       -4.50898       -0.29340
C         -0.89591       -2.64298       -1.32217
H         -1.76146       -1.96454       -1.27550
H         -0.33957       -2.43831       -2.24962
H         -1.27179       -3.67555       -1.36288
C         -0.73436       -2.73873        1.20125
H         -0.06136       -2.61481        2.06364
H         -1.58397       -2.04705        1.31421
H         -1.12347       -3.76737        1.21044
C          1.05422        3.56362       -0.27989
H          1.71421        3.63395        0.59216
H          1.66728        3.42279       -1.17948
H          0.53072        4.52593       -0.38058
C         -0.94370        2.61189       -1.35526
H         -0.38027        2.40201       -2.27724
H         -1.79539        1.91695       -1.29872
H         -1.34060        3.63553       -1.41578
C         -0.79211        2.75803        1.16581
H         -1.62865        2.05202        1.28764
H         -0.12063        2.66235        2.03299
H         -1.20092        3.77900        1.15568
N          2.99241       -1.47485        0.04831
N          2.94786        1.56146        0.06117
C          3.78097       -1.77221       -1.11410
H          4.75223       -1.23827       -1.11961
H          4.00210       -2.85509       -1.17999
H          3.23368       -1.48601       -2.02235
C          3.58968       -1.76970        1.32093
H          3.82420       -2.84807        1.41193
H          4.53428       -1.21374        1.48894
H          2.89485       -1.50891        2.13071
C          3.50658        1.84816        1.35498
H          4.35144        1.18112        1.62323
H          3.88131        2.88744        1.39263
H          2.73382        1.74363        2.12930
C          3.83310        1.72168       -1.05902
H          4.17603        2.77037       -1.13412
H          4.73733        1.08263       -0.99712
H          3.30661        1.47429       -1.99089
H         -3.98697       -0.03223        0.23083
