57
5u_diome_mes_auh.log	Energy: -807923.6523456
N         -1.06145        0.84192        0.02377
N          1.08039        0.91451        0.03810
C          0.03249        0.05120       -0.01790
Au         0.11355       -2.01164       -0.14593
C         -2.40624        0.36780       -0.03320
C         -3.12842        0.54422       -1.22080
C         -2.96348       -0.24185        1.09968
C         -4.44900        0.09462       -1.25214
C         -4.28760       -0.67645        1.01593
C         -5.04524       -0.51975       -0.14759
H         -5.02574        0.22110       -2.17272
H         -4.73845       -1.15617        1.88923
C          2.45186        0.51393        0.01960
C          3.16651        0.62484       -1.17885
C          3.02862        0.01910        1.19493
C          4.50148        0.22040       -1.17973
C          4.36699       -0.37409        1.14314
C          5.11792       -0.28468       -0.03150
H          5.07421        0.29592       -2.10839
H          4.83479       -0.76606        2.05064
C         -2.16011       -0.44398        2.34822
H         -1.43743       -1.26509        2.20289
H         -1.57404        0.45071        2.60911
H         -2.80848       -0.69885        3.19705
C         -2.49034        1.18543       -2.41575
H         -2.28719        2.25137       -2.22794
H         -1.52893        0.70306       -2.65170
H         -3.14041        1.10846       -3.29720
C         -6.45304       -1.03433       -0.22182
H         -7.06154       -0.44849       -0.92566
H         -6.46540       -2.08076       -0.56947
H         -6.94417       -1.01159        0.76166
C          2.22492       -0.11389        2.45252
H          1.65332        0.80170        2.66887
H          1.49595       -0.93561        2.35204
H          2.87212       -0.33071        3.31259
C          2.50259        1.15071       -2.41517
H          1.58521        0.58345       -2.63853
H          2.21591        2.20701       -2.29046
H          3.17130        1.07871       -3.28299
C          6.54268       -0.75508       -0.06932
H          7.13308       -0.19797       -0.81098
H          7.02973       -0.64783        0.91058
H          6.59215       -1.82174       -0.34480
C          0.65232        2.22910        0.11059
C         -0.71398        2.19619        0.09989
O          1.56525        3.19474        0.14457
O         -1.61820        3.18425        0.06233
C          1.09888        4.51229        0.33178
H          0.41500        4.81576       -0.47554
H          0.57732        4.61313        1.29881
H          1.98544        5.15735        0.33055
C         -2.37824        3.38753        1.24399
H         -3.01133        2.51426        1.46606
H         -1.71687        3.59156        2.10314
H         -3.01943        4.25857        1.05962
H          0.17496       -3.61845       -0.23567
