55
5u_dime_mes_auh.log	Energy: -713717.9562206
N         -1.06607        1.12759        0.00000
N          1.06607        1.12759        0.00000
C          0.00000        0.29627        0.00000
Au        -0.00000       -1.76743       -0.00000
C         -2.42161        0.68078        0.00000
C         -3.06281        0.47021       -1.22658
C         -3.06281        0.47020        1.22659
C         -4.39612        0.05839       -1.20108
C         -4.39612        0.05838        1.20108
C         -5.07943       -0.15102       -0.00000
H         -4.91306       -0.11208       -2.14969
H         -4.91306       -0.11209        2.14969
C          2.42161        0.68078        0.00000
C          3.06281        0.47021       -1.22658
C          3.06281        0.47020        1.22659
C          4.39612        0.05838       -1.20108
C          4.39612        0.05838        1.20108
C          5.07943       -0.15102       -0.00000
H          4.91306       -0.11208       -2.14969
H          4.91306       -0.11209        2.14969
C         -2.31559        0.63731        2.51514
H         -1.52438       -0.12651        2.59466
H         -1.81927        1.61815        2.58107
H         -2.98565        0.53012        3.37824
C         -2.31559        0.63732       -2.51513
H         -1.81927        1.61816       -2.58107
H         -1.52437       -0.12650       -2.59466
H         -2.98565        0.53013       -3.37823
C         -6.50101       -0.63257       -0.00000
H         -7.04482       -0.28759       -0.89115
H         -6.53732       -1.73471       -0.00005
H         -7.04479       -0.28766        0.89119
C          2.31559        0.63731        2.51514
H          1.81928        1.61815        2.58107
H          1.52438       -0.12651        2.59466
H          2.98565        0.53012        3.37824
C          2.31559        0.63731       -2.51513
H          1.52437       -0.12651       -2.59466
H          1.81927        1.61815       -2.58107
H          2.98565        0.53013       -3.37823
C          6.50101       -0.63258       -0.00000
H          7.04479       -0.28767        0.89119
H          6.53732       -1.73471       -0.00005
H          7.04482       -0.28759       -0.89115
C          0.68263        2.46694        0.00000
C         -0.68263        2.46694        0.00000
C          1.67119        3.57279        0.00000
H          1.16044        4.54438        0.00000
H          2.32596        3.52765        0.88445
H          2.32596        3.52765       -0.88445
C         -1.67119        3.57279        0.00000
H         -2.32595        3.52765       -0.88445
H         -2.32596        3.52765        0.88445
H         -1.16044        4.54438        0.00000
H         -0.00000       -3.37949       -0.00001
