65
5u_dime_ad_auh.log	Energy: -764499.3664186
N         -1.08815       -1.31508        0.00010
N          1.08817       -1.31509       -0.00018
C         -0.68563       -2.65127       -0.00004
C          0.00001       -0.50156       -0.00001
C          0.68566       -2.65126       -0.00020
Au        -0.00002        1.62652       -0.00012
C          1.54632       -3.86904       -0.00018
H          2.18940       -3.93756        0.88687
H          0.90936       -4.76004       -0.00009
H          2.18932       -3.93767       -0.88729
C         -1.54627       -3.86906       -0.00015
H         -0.90928       -4.76004       -0.00031
H         -2.18924       -3.93778        0.88698
H         -2.18938       -3.93755       -0.88719
C         -2.47133       -0.73628        0.00018
C         -2.65641        0.11771        1.26600
C         -3.58848       -1.78966        0.00025
C         -2.65650        0.11738       -1.26588
H         -2.55441       -0.53334        2.15134
H         -1.85692        0.87442        1.32278
C         -4.01955        0.80932        1.25223
H         -3.51345       -2.42943        0.89045
H         -3.51349       -2.42942       -0.88998
C         -4.96796       -1.11465        0.00025
H         -1.85700        0.87406       -1.32289
H         -2.55453       -0.53391       -2.15104
C         -4.01962        0.80902       -1.25225
H         -4.10336        1.43947        2.15245
C         -5.12406       -0.24669        1.24858
C         -4.13032        1.68451       -0.00011
H         -5.73192       -1.90959        0.00035
C         -5.12415       -0.24697       -1.24826
H         -4.10347        1.43895       -2.15261
H         -6.11808        0.23105        1.25492
H         -5.05952       -0.86843        2.15780
H         -3.32959        2.44224       -0.00022
H         -5.09263        2.22333       -0.00015
H         -5.05968       -0.86892       -2.15734
H         -6.11816        0.23079       -1.25464
C          2.47136       -0.73628       -0.00008
C          2.65656        0.11764       -1.26593
C          3.58854       -1.78965       -0.00005
C          2.65638        0.11743        1.26596
H          2.55466       -0.53345       -2.15124
H          1.85705        0.87433       -1.32282
C          4.01968        0.80930       -1.25206
H          3.51361       -2.42940       -0.89029
H          3.51348       -2.42947        0.89014
C          4.96800       -1.11461        0.00010
H          1.85686        0.87410        1.32288
H          2.55434       -0.53383        2.15114
C          4.01949        0.80909        1.25242
H          4.10356        1.43941       -2.15229
C          5.12421       -0.24668       -1.24824
C          4.13030        1.68453        0.00026
H          5.73198       -1.90953        0.00009
C          5.12403       -0.24688        1.24860
H          4.10323        1.43906        2.15277
H          6.11822        0.23109       -1.25449
H          5.05979       -0.86846       -2.15744
H          3.32955        2.44225        0.00027
H          5.09260        2.22337        0.00038
H          5.05947       -0.86881        2.15770
H          6.11804        0.23089        1.25507
H         -0.00006        3.23183       -0.00025
