43
5u_dicf3_ptolu_auh.log	Energy: -988225.5631653
N         -1.07357        0.57411        0.03789
N          1.07355        0.57409       -0.03788
C         -0.00001       -0.25557        0.00001
Au        -0.00001       -2.32614       -0.00001
C         -2.41788        0.08202        0.02619
C         -3.25942        0.39858       -1.03493
C         -2.85486       -0.74127        1.06063
C         -4.55492       -0.10927       -1.05113
C         -4.14843       -1.24682        1.02504
C         -5.02048       -0.94258       -0.02833
H         -5.21510        0.14072       -1.88524
H         -4.48739       -1.89690        1.83542
C          2.41786        0.08199       -0.02617
C          2.85485       -0.74127       -1.06062
C          3.25939        0.39852        1.03498
C          4.14841       -1.24682       -1.02504
C          4.55488       -0.10934        1.05117
C          5.02046       -0.94260        0.02836
H          4.48738       -1.89688       -1.83543
H          5.21505        0.14062        1.88531
C         -6.40354       -1.52153       -0.06738
H         -7.04906       -0.98108       -0.77343
H         -6.37373       -2.57714       -0.38376
H         -6.87836       -1.49351        0.92452
C          6.40354       -1.52150        0.06734
H          7.04885       -0.98152        0.77394
H          6.37372       -2.57735        0.38294
H          6.87861       -1.49273       -0.92442
C          0.68252        1.90112       -0.04105
C         -0.68252        1.90113        0.04107
C          1.64783        3.04864       -0.17666
C         -1.64780        3.04868        0.17666
H          2.90311        1.03636        1.84583
H         -2.17868       -0.98729        1.88081
H          2.17867       -0.98727       -1.88082
H         -2.90316        1.03645       -1.84577
F          1.05650        4.09881       -0.73447
F          2.67535        2.70968       -0.95047
F          2.13622        3.42957        1.00519
F         -1.05647        4.09880        0.73459
F         -2.13604        3.42971       -1.00522
F         -2.67540        2.70973        0.95034
H          0.00001       -3.93396       -0.00002
