67
5u_dif_dipp_auh.log	Energy: -936518.7727352
N          1.07309        0.00008        1.01562
N         -1.07308        0.00008        1.01563
C          0.67754        0.00019        2.33667
C         -3.06536       -1.23487        0.36350
C          0.00000        0.00001        0.18515
C         -0.67753        0.00019        2.33667
C          3.06540       -1.23488        0.36359
C          2.43577        0.00005        0.57823
C         -2.43577        0.00005        0.57825
C         -4.38906       -1.20742       -0.08218
H         -4.91222       -2.14778       -0.26945
C          4.38904        1.20743       -0.08242
H          4.91218        2.14776       -0.26986
C          4.38909       -1.20743       -0.08210
H          4.91228       -2.14779       -0.26929
C          3.06534        1.23494        0.36326
C         -3.06537        1.23494        0.36339
C          5.04409       -0.00001       -0.30078
H          6.07831       -0.00004       -0.65298
C         -5.04409       -0.00001       -0.30075
H         -6.07831       -0.00003       -0.65294
C         -4.38907        1.20744       -0.08229
H         -4.91224        2.14777       -0.26965
C         -2.33871       -2.55039        0.55341
H         -1.36380       -2.33156        1.01617
C          2.33867        2.55048        0.55295
H          1.36376        2.33171        1.01571
C          3.08691        3.48629        1.49968
H          2.50465        4.40492        1.66997
H          4.06226        3.78816        1.08717
H          3.26705        3.00814        2.47446
C         -3.08698       -3.48606        1.50026
H         -2.50472       -4.40466        1.67071
H         -4.06232       -3.78800        1.08776
H         -3.26716       -3.00777        2.47496
C          2.05430        3.20255       -0.80075
H          1.46726        4.12512       -0.67041
H          2.99004        3.46711       -1.31820
H          1.48774        2.52033       -1.45433
C         -2.05430       -3.20267       -0.80018
H         -2.99002       -3.46729       -1.31762
H         -1.48771       -2.52054       -1.45385
H         -1.46726       -4.12522       -0.66968
C          2.33874       -2.55039        0.55356
H          1.36396       -2.33156        1.01657
C          2.05401       -3.20250       -0.80004
H          1.48731       -2.52027       -1.45352
H          2.98961       -3.46709       -1.31771
H          1.46696       -4.12504       -0.66953
C          3.08718       -3.48620        1.50013
H          3.26765       -3.00802        2.47483
H          2.50489       -4.40476        1.67063
H          4.06239       -3.78819        1.08735
C         -2.33870        2.55048        0.55313
H         -1.36390        2.33172        1.01612
C         -3.08709        3.48644        1.49958
H         -2.50480        4.40503        1.66992
H         -4.06232        3.78836        1.08681
H         -3.26751        3.00840        2.47436
C         -2.05402        3.20238       -0.80059
H         -1.48735        2.52006       -1.45398
H         -2.98964        3.46690       -1.31826
H         -1.46696        4.12494       -0.67023
Au        -0.00001       -0.00016       -1.88043
F          1.54362        0.00029        3.31591
F         -1.54360        0.00027        3.31592
H         -0.00001       -0.00029       -3.48943
