37
5u_dicl_ptolu_auh.log	Energy: -1142382.4998970
N         -1.07766        0.99398       -0.00162
N          1.07760        0.99399        0.00155
C         -0.00002        0.16617       -0.00006
Au         0.00004       -1.90721        0.00006
C         -2.42868        0.53655       -0.01902
C         -2.85511       -0.30173       -1.04730
C         -3.30396        0.91072        0.99669
C         -4.16406       -0.76841       -1.04789
C         -4.61465        0.44366        0.97565
C         -5.06646       -0.40642       -0.03975
H         -4.49107       -1.43221       -1.85216
H         -5.29880        0.73844        1.77529
C          2.42863        0.53658        0.01894
C          3.30387        0.91070       -0.99684
C          2.85513       -0.30157        1.04728
C          4.61456        0.44369       -0.97581
C          4.16410       -0.76822        1.04787
C          5.06644       -0.40630        0.03964
H          5.29869        0.73845       -1.77549
H          4.49118       -1.43190        1.85219
C         -6.46749       -0.94246       -0.03781
H         -6.89944       -0.94118       -1.04952
H         -6.48435       -1.98472        0.32115
H         -7.12514       -0.35505        0.61793
C          6.46743       -0.94246        0.03752
H          6.89864       -0.94359        1.04953
H          6.48440       -1.98389       -0.32386
H          7.12560       -0.35366       -0.61643
C          0.68094        2.32276        0.00238
C         -0.68100        2.32275       -0.00234
H          2.15576       -0.59214        1.83284
H         -2.95923        1.55840        1.80464
H          2.95908        1.55833       -1.80481
H         -2.15570       -0.59236       -1.83280
Cl         1.74312        3.63970        0.04775
Cl        -1.74316        3.63972       -0.04766
H          0.00011       -3.51542        0.00021
