41
5u_ph_tbu_auh.log	Energy: -520481.0712776
C          2.23056       -0.70669        0.00001
C          2.23057        0.70666        0.00001
C          3.44342        1.41139       -0.00000
C          4.63290        0.69856       -0.00001
C          4.63288       -0.69864       -0.00001
C          3.44339       -1.41145       -0.00001
C          0.08791        0.00001        0.00001
H          3.48344        2.49316       -0.00001
H          5.57834        1.24479       -0.00002
H          5.57831       -1.24489       -0.00003
H          3.48338       -2.49322       -0.00002
N          0.89036       -1.09753        0.00001
N          0.89038        1.09753        0.00001
Au        -2.02766        0.00000       -0.00001
C          0.31472        2.48661        0.00001
C          0.31467       -2.48660        0.00001
C          1.39002       -3.56935        0.00003
H          2.01866       -3.53934       -0.89993
H          2.01866       -3.53931        0.89999
H          0.87064       -4.53730        0.00004
C         -0.52047       -2.67015        1.26836
H          0.10279       -2.52220        2.16333
H         -1.36412       -1.96371        1.30566
H         -0.92968       -3.69051        1.29366
C         -0.52043       -2.67013       -1.26838
H         -1.36406       -1.96367       -1.30570
H          0.10287       -2.52219       -2.16332
H         -0.92967       -3.69048       -1.29370
C          1.39009        3.56934        0.00005
H          2.01872        3.53928        0.90001
H          2.01873        3.53934       -0.89991
H          0.87072        4.53730        0.00007
C         -0.52044        2.67017        1.26835
H         -1.36409        1.96373        1.30563
H          0.10281        2.52223        2.16332
H         -0.92965        3.69053        1.29364
C         -0.52037        2.67018       -1.26838
H          0.10292        2.52223       -2.16332
H         -1.36403        1.96375       -1.30570
H         -0.92957        3.69055       -1.29368
H         -3.63260       -0.00001       -0.00002
