73
5u_ph_dipp_auh.log	Energy: -908445.8565014
C          0.70035       -0.00087        2.16732
C         -0.70037       -0.00089        2.16731
C         -1.43258       -0.00134        3.35144
C         -0.70277       -0.00177        4.53768
C          0.70269       -0.00176        4.53770
C          1.43253       -0.00131        3.35147
C          0.00001       -0.00006        0.01265
H         -2.52379       -0.00134        3.33851
H         -1.23474       -0.00213        5.49134
H          1.23465       -0.00211        5.49137
H          2.52374       -0.00129        3.33857
N          1.08078       -0.00037        0.83270
N         -1.08078       -0.00038        0.83268
C          2.43745       -0.00017        0.38649
C          3.07532       -1.23415        0.18386
C          3.07519        1.23398        0.18452
C          4.40478       -1.20698       -0.24541
C          4.40465        1.20719       -0.24476
C          5.06269        0.00020       -0.45686
H          4.93075       -2.14737       -0.42472
H          4.93051        2.14773       -0.42356
C         -2.43745       -0.00020        0.38645
C         -3.07526        1.23394        0.18468
C         -3.07524       -1.23419        0.18361
C         -4.40472        1.20714       -0.24460
C         -4.40470       -1.20703       -0.24566
C         -5.06268        0.00014       -0.45691
H         -4.93064        2.14768       -0.42325
H         -4.93060       -2.14743       -0.42513
C          2.34549       -2.54926        0.36611
H          1.38369       -2.33137        0.85517
C          2.34527        2.54894        0.36757
H          1.38326        2.33064        0.85604
C         -2.34538       -2.54930        0.36572
H         -1.38336       -2.33139        0.85436
C         -2.34539        2.54890        0.36791
H         -1.38352        2.33061        0.85665
Au         0.00002        0.00089       -2.04983
C          3.10432        3.51006        1.27927
H          3.31174        3.05468        2.25964
H          4.06607        3.81743        0.83956
H          2.51438        4.42440        1.44608
C          2.03133        3.17503       -0.99211
H          2.95635        3.43493       -1.53097
H          1.45796        2.47791       -1.62386
H          1.44049        4.09611       -0.86822
C          2.03097       -3.17414       -0.99400
H          1.45721       -2.47652       -1.62485
H          2.95578       -3.43341       -1.53353
H          1.44032       -4.09542       -0.87066
C          3.10487       -3.51123        1.27663
H          4.06639       -3.81831        0.83622
H          3.31278       -3.05671        2.25730
H          2.51493       -4.42565        1.44292
C         -3.10446       -3.51108        1.27669
H         -2.51457       -4.42557        1.44281
H         -3.31186       -3.05642        2.25740
H         -4.06623       -3.81806        0.83675
C         -2.03143       -3.17439       -0.99442
H         -2.95645       -3.43369       -1.53357
H         -1.45785       -2.47689       -1.62557
H         -1.44079       -4.09569       -0.87118
C         -3.10465        3.51009        1.27935
H         -3.31240        3.05475        2.25966
H         -2.51471        4.42440        1.44630
H         -4.06625        3.81751        0.83934
C         -2.03107        3.17492       -0.99172
H         -1.45739        2.47782       -1.62322
H         -2.95595        3.43463       -1.53092
H         -1.44041        4.09610       -0.86770
H          6.10113        0.00035       -0.79660
H         -6.10112        0.00028       -0.79665
H          0.00003        0.00165       -3.66091
