55
5u_ph_mes_auh.log	Energy: -760705.7991574
C          0.70053        2.25688       -0.00122
C         -0.70063        2.25685        0.00135
C         -1.43193        3.44154        0.00280
C         -0.70263        4.62846        0.00134
C          0.70242        4.62849       -0.00144
C          1.43178        3.44161       -0.00278
C         -0.00002        0.10325        0.00012
H         -2.52325        3.42902        0.00501
H         -1.23510        5.58188        0.00244
H          1.23485        5.58194       -0.00264
H          2.52310        3.42915       -0.00500
N          1.08205        0.92158       -0.00148
N         -1.08210        0.92154        0.00169
C          2.43592        0.46878       -0.00315
C          3.08536        0.28522        1.22351
C          3.06704        0.23634       -1.23103
C          4.41595       -0.13474        1.19603
C          4.39791       -0.18308       -1.20635
C          5.08793       -0.37440       -0.00597
H          4.94019       -0.28557        2.14389
H          4.90810       -0.37166       -2.15510
C         -2.43596        0.46872        0.00325
C         -3.08532        0.28521       -1.22346
C         -3.06716        0.23622        1.23108
C         -4.41590       -0.13476       -1.19609
C         -4.39802       -0.18322        1.20629
C         -5.08796       -0.37450        0.00585
H         -4.94008       -0.28556       -2.14399
H         -4.90828       -0.37185        2.15500
C          2.35221        0.49867        2.51325
H          1.89708        1.50024        2.56410
H          1.53527       -0.23469        2.61416
H          3.02448        0.38224        3.37333
C          2.31520        0.39842       -2.51734
H          1.51261       -0.35442       -2.58692
H          1.83855        1.38845       -2.59017
H          2.97969        0.27111       -3.38191
C          6.50629       -0.86502       -0.00682
H          6.53514       -1.96719        0.01282
H          7.04603       -0.53992       -0.90782
H          7.05832       -0.50772        0.87432
C         -2.31538        0.39825        2.51742
H         -1.51288       -0.35467        2.58707
H         -1.83863        1.38823        2.59024
H         -2.97993        0.27105        3.38197
C         -2.35206        0.49868       -2.51314
H         -1.89687        1.50023       -2.56391
H         -1.53515       -0.23472       -2.61399
H         -3.02426        0.38232       -3.37328
C         -6.50631       -0.86513        0.00657
H         -6.53514       -1.96729       -0.01362
H         -7.04598       -0.54050        0.90777
H         -7.05842       -0.50741       -0.87435
Au         0.00006       -1.95466       -0.00002
H          0.00014       -3.56664       -0.00017
