43
5u_ph_ptolu_auh.log	Energy: -662194.7275775
C          0.70055        2.34102        0.00802
C         -0.70056        2.34102       -0.00802
C         -1.42861        3.52889       -0.03608
C         -0.70175        4.71578       -0.02206
C          0.70175        4.71578        0.02206
C          1.42861        3.52889        0.03609
C          0.00000        0.18214       -0.00000
H         -2.51881        3.52351       -0.06801
H         -1.23577        5.66803       -0.04338
H          1.23577        5.66803        0.04338
H          2.51881        3.52351        0.06801
N          1.08328        1.00324        0.00695
N         -1.08328        1.00324       -0.00695
C          2.43197        0.55051        0.02322
C          2.86342       -0.32309        1.02094
C          3.31718        0.98009       -0.96284
C          4.18008       -0.76729        1.01920
C          4.63695        0.53623       -0.94377
C          5.09079       -0.34751        0.04084
H          4.50800       -1.45884        1.79955
H          5.32551        0.87434       -1.72240
C         -2.43197        0.55050       -0.02322
C         -2.86342       -0.32309       -1.02095
C         -3.31718        0.98008        0.96284
C         -4.18008       -0.76729       -1.01920
C         -4.63695        0.53622        0.94377
C         -5.09079       -0.34751       -0.04084
H         -4.50800       -1.45884       -1.79955
H         -5.32551        0.87433        1.72241
C          6.50216       -0.85637        0.04053
H          6.53869       -1.90571       -0.29506
H          7.14407       -0.26967       -0.63119
H          6.94057       -0.82406        1.04932
C         -6.50216       -0.85636       -0.04054
H         -6.53869       -1.90575        0.29490
H         -7.14404       -0.26975        0.63129
H         -6.94061       -0.82391       -1.04930
Au         0.00000       -1.88778        0.00000
H         -2.96797        1.64748        1.75347
H         -2.16032       -0.65748       -1.78556
H          2.96797        1.64749       -1.75346
H          2.16032       -0.65749        1.78555
H          0.00000       -3.49803        0.00000
