65
5u_ph_ad_auh.log	Energy: -811491.0625523
C         -0.70669       -2.44959       -0.00021
C          0.70671       -2.44959       -0.00008
C          1.41155       -3.66272        0.00046
C          0.69873       -4.85197        0.00071
C         -0.69867       -4.85198        0.00048
C         -1.41150       -3.66273        0.00005
C          0.00001       -0.30703       -0.00052
H          2.49336       -3.70201        0.00081
H          1.24497       -5.79743        0.00115
H         -1.24490       -5.79744        0.00070
H         -2.49332       -3.70205       -0.00001
N         -1.09785       -1.10896       -0.00051
N          1.09787       -1.10895       -0.00040
Au        -0.00003        1.81508        0.00032
C          2.47892       -0.53114       -0.00036
C          2.67032        0.32011        1.26563
C          3.57999       -1.59972       -0.00092
C          2.67023        0.32099       -1.26579
H          2.55857       -0.32905        2.15091
H          1.88031        1.08731        1.31979
C          4.04279        0.99345        1.25239
H          3.48983       -2.23518       -0.89480
H          3.48990       -2.23627        0.89219
C          4.96778       -0.94311       -0.00063
H          1.88026        1.08826       -1.31941
H          2.55842       -0.32755       -2.15151
C          4.04270        0.99433       -1.25216
H          4.13512        1.62161        2.15306
C          5.13312       -0.07760        1.24856
C          4.16572        1.86757        0.00042
H          5.72236       -1.74674       -0.00094
C          5.13309       -0.07665       -1.24915
H          4.13494        1.62313       -2.15240
H          5.05968       -0.69890        2.15727
H          6.13308        0.38734        1.25621
H          3.37638        2.63716        0.00072
H          5.13550        2.39263        0.00057
H          6.13302        0.38835       -1.25646
H          5.05968       -0.69728       -2.15832
C         -2.47891       -0.53116       -0.00040
C         -2.67024        0.32101       -1.26579
C         -3.57997       -1.59975       -0.00088
C         -2.67028        0.32006        1.26563
H         -2.55844       -0.32750       -2.15153
H         -1.88027        1.08828       -1.31939
C         -4.04272        0.99435       -1.25211
H         -3.48987       -2.23619        0.89230
H         -3.48981       -2.23531       -0.89470
C         -4.96776       -0.94314       -0.00061
H         -1.88028        1.08727        1.31980
H         -2.55850       -0.32913        2.15089
C         -4.04275        0.99339        1.25243
H         -4.13498        1.62317       -2.15233
C         -5.13309       -0.07666       -1.24912
C         -4.16571        1.86754        0.00049
H         -5.72234       -1.74677       -0.00093
C         -5.13309       -0.07765        1.24859
H         -4.13506        1.62152        2.15313
H         -5.05967       -0.69726       -2.15830
H         -6.13303        0.38832       -1.25641
H         -3.37637        2.63714        0.00081
H         -5.13550        2.39260        0.00068
H         -6.13305        0.38729        1.25626
H         -5.05965       -0.69897        2.15729
H         -0.00006        3.42011        0.00121
