85
6s_cyhexane_dIdipp_auh.log	Energy: -962030.9751101
C         -0.07052       -0.02221        0.09891
C          1.67423        1.11622        1.44015
H          2.71620        1.34959        1.18142
H          1.69440        0.67540        2.45423
C         -0.64288        1.90860        1.53526
H         -0.85544        1.54178        2.55679
H         -1.32406        2.75332        1.35272
C          2.17061       -0.87671        0.10776
C          2.30936       -2.02829        0.90251
C          3.29172       -2.95653        0.54586
H          3.41417       -3.86288        1.14365
C          4.10403       -2.75141       -0.56238
C          3.94565       -1.60864       -1.33847
H          4.57756       -1.46206       -2.21719
C          2.98318       -0.64864       -1.01811
C          1.42170       -2.30110        2.10018
H          0.68413       -1.48655        2.16194
C          2.78806        0.56259       -1.90467
H          2.17028        1.27507       -1.34173
C         -2.34763        0.72399        0.23459
C         -2.84615        1.35806       -0.91759
C         -4.21702        1.27047       -1.17254
H         -4.62625        1.74785       -2.06625
C         -5.06369        0.57643       -0.31594
C         -4.54607       -0.06203        0.80487
H         -5.21321       -0.62845        1.45920
C         -3.18130       -0.00629        1.09975
C         -1.94216        2.08103       -1.89316
H         -0.92005        2.01096       -1.49898
C         -2.63793       -0.76939        2.29089
H         -1.54971       -0.60772        2.32195
N          1.20400        0.11558        0.48821
N         -0.95838        0.86288        0.56947
C          0.80537        2.37294        1.44197
C          1.01845        3.21753        0.17405
C          1.12312        3.22958        2.67577
C          2.38933        3.88012        0.10743
H          0.24062        4.00075        0.15704
H          0.84550        2.60259       -0.72180
C          2.49962        3.88308        2.62010
H          0.35399        4.01973        2.74753
H          1.02125        2.61548        3.58668
C          2.66865        4.71274        1.35262
H          2.44968        4.50526       -0.79758
H          3.17546        3.11420       -0.00851
H          2.64568        4.51044        3.51367
H          3.28619        3.10927        2.66332
H          3.67998        5.14714        1.30836
H          1.96518        5.56449        1.38342
C         -1.94123        1.38757       -3.25501
H         -1.21370        1.86395       -3.93107
H         -1.67212        0.32491       -3.14792
H         -2.93095        1.44044       -3.73573
C         -2.29313        3.56359       -2.00441
H         -3.30263        3.70951       -2.42044
H         -2.26570        4.06034       -1.02197
H         -1.58333        4.08153       -2.66852
C         -3.22207       -0.26380        3.60907
H         -4.31087       -0.42440        3.65291
H         -2.77472       -0.79709        4.46252
H         -3.04223        0.81396        3.74521
C         -2.85582       -2.27134        2.10975
H         -2.40752       -2.61650        1.16548
H         -2.39861       -2.83265        2.93932
H         -3.92825       -2.52083        2.08785
C          0.63538       -3.59810        1.91543
H          0.05273       -3.56861        0.98184
H          1.30475       -4.47150        1.87210
H         -0.05929       -3.75233        2.75531
C          2.22205       -2.30441        3.40262
H          2.96303       -3.11935        3.41399
H          2.76976       -1.35985        3.54511
H          1.55618       -2.44918        4.26790
C          4.09902        1.26551       -2.24699
H          4.67525        1.51450       -1.34235
H          4.74140        0.64449       -2.89063
H          3.90001        2.20044       -2.79344
C          2.00305        0.18411       -3.16146
H          1.05108       -0.30485       -2.89858
H          1.78391        1.07636       -3.76960
H          2.57613       -0.52107       -3.78427
H          4.86190       -3.49191       -0.82880
H         -6.13318        0.51962       -0.53196
Au        -0.67448       -1.58868       -1.14506
H         -1.14993       -2.81093       -2.08121
