79
6s_cy4_dipp_auh.log	Energy: -910679.9232305
C         -0.01081        0.05098        0.27015
C          1.27114        0.99444        2.16605
H          2.18363        1.60936        2.16026
H          1.40996        0.22405        2.94774
C         -1.18016        0.99330        2.23668
H         -1.27110        0.21222        3.01541
H         -2.08927        1.61016        2.29320
C          2.38452       -0.04460        0.24481
C          2.95138       -1.27763        0.61110
C          4.19067       -1.61787        0.06242
H          4.64938       -2.57435        0.32471
C          4.83915       -0.76562       -0.82396
C          4.24669        0.43694       -1.19284
H          4.74995        1.08822       -1.91164
C          3.00877        0.82061       -0.67119
C          2.22948       -2.25616        1.51567
H          1.29972       -1.77382        1.85377
C          2.36097        2.11143       -1.12642
H          1.37963        2.17176       -0.63523
C         -2.40590        0.05507        0.32685
C         -3.02606        1.00441       -0.50487
C         -4.28745        0.69691       -1.02012
H         -4.78681        1.41170       -1.67879
C         -4.90938       -0.50983       -0.71843
C         -4.27039       -1.43911        0.09432
H         -4.75715       -2.39384        0.30796
C         -3.00628       -1.17839        0.63035
C         -2.34139        2.30055       -0.88595
H         -1.39849        2.34905       -0.32345
C         -2.30534       -2.22981        1.46651
H         -1.32765       -1.81988        1.76272
N          1.15222        0.35510        0.86096
N         -1.13807        0.37411        0.91623
Au        -0.05983       -0.92160       -1.57857
C          0.05010        1.83626        2.48448
C          0.09454        3.24803        1.84239
C          0.16195        2.51299        3.86783
C          0.63033        3.80560        3.17338
H         -0.91703        3.61665        1.61753
H          0.71508        3.37406        0.94411
H         -0.82727        2.62721        4.33779
H          0.83847        2.04077        4.59759
H          0.20135        4.75227        3.53069
H          1.72575        3.90671        3.17417
C          2.09701        2.09478       -2.63140
H          1.54664        2.99884       -2.93608
H          3.03527        2.06366       -3.20756
H          1.49669        1.21384       -2.90802
C          3.17324        3.33356       -0.70024
H          2.65873        4.26345       -0.98983
H          3.33064        3.35652        0.38966
H          4.16653        3.34175       -1.17634
C          3.04763       -2.60581        2.75722
H          3.31990       -1.70509        3.32911
H          2.47815       -3.27489        3.42110
H          3.98256       -3.12382        2.49154
C          1.81920       -3.50244        0.73077
H          1.21443       -3.22611       -0.14697
H          2.70107       -4.05681        0.37289
H          1.22707       -4.18276        1.36278
C         -3.08100       -2.55165        2.74296
H         -4.06512       -2.99055        2.51464
H         -2.52987       -3.27883        3.35969
H         -3.25471       -1.64915        3.34943
C         -2.02725       -3.48285        0.63641
H         -1.44687       -4.21415        1.22029
H         -2.96309       -3.97135        0.32227
H         -1.45644       -3.22863       -0.27024
C         -1.97215        2.30121       -2.36941
H         -2.87080        2.27179       -3.00585
H         -1.40448        3.20923       -2.62788
H         -1.35525        1.42213       -2.61549
C         -3.17010        3.52445       -0.50153
H         -3.41900        3.52454        0.57142
H         -2.61803        4.45094       -0.72475
H         -4.11874        3.56437       -1.05974
H          5.80727       -1.04864       -1.24389
H         -5.89586       -0.73346       -1.13146
H         -0.09583       -1.68569       -2.99674
