55
6s_cyhexane_dIphme_auh.log	Energy: -715192.7725363
C         -0.09780        0.09503        0.31567
C          1.59203        1.76506        0.98814
H          2.64335        1.89634        0.70330
H          1.54249        1.84228        2.08910
C         -0.71999        2.46009        0.75535
H         -0.88110        2.63014        1.83552
H         -1.44203        3.09637        0.22261
C          2.22385       -0.52191        0.36900
C          3.09743       -0.80373        1.41767
C          4.13528       -1.71467        1.23505
H          4.80797       -1.93296        2.06873
C          4.32154       -2.36599        0.01182
C          3.44058       -2.06121       -1.03342
H          3.56475       -2.55043       -2.00309
C          2.40712       -1.14703       -0.86588
C          5.41211       -3.37984       -0.17417
H          5.00345       -4.40336       -0.14339
H          6.17464       -3.30372        0.61376
H          5.91137       -3.26019       -1.14745
C         -2.40131        0.74341        0.28973
C         -3.12725        1.24412       -0.78897
C         -4.47889        0.93858       -0.91889
H         -5.03617        1.32724       -1.77533
C         -5.13168        0.12859        0.01696
C         -4.38724       -0.35802        1.09810
H         -4.87193       -0.99471        1.84279
C         -3.03770       -0.05468        1.23995
C         -6.57680       -0.23989       -0.14919
H         -7.10506        0.47367       -0.79732
H         -7.09769       -0.27611        0.81900
H         -6.67328       -1.23788       -0.60808
N          1.18122        0.43444        0.55042
N         -1.01616        1.06717        0.43083
C          0.70027        2.83504        0.36472
C          0.84490        2.86390       -1.16690
C          1.03818        4.21575        0.94010
C          2.20134        3.38181       -1.63051
H          0.05423        3.52514       -1.56440
H          0.64991        1.86425       -1.58565
C          2.39411        4.74276        0.48069
H          0.25052        4.92103        0.61918
H          0.98980        4.18017        2.04192
C          2.50429        4.75402       -1.03989
H          2.22142        3.42412       -2.73097
H          2.99469        2.66859       -1.34557
H          2.55142        5.75513        0.88544
H          3.20268        4.12125        0.90387
H          3.50449        5.09670       -1.34936
H          1.78507        5.48772       -1.44727
H         -2.46226       -0.44799        2.07997
H         -2.62438        1.85727       -1.54074
H          1.72990       -0.91566       -1.68968
H          2.95601       -0.32224        2.38777
Au        -0.66478       -1.85829       -0.20491
H         -1.10812       -3.35567       -0.59653
