74
6s_cypentane_dIad_auh.log	Energy: -840124.3734945
C         -0.05005        0.21754        0.34714
C          1.26305        2.23863        0.78172
H          2.20511        2.55704        0.31700
H          1.31756        2.52000        1.84797
C         -1.15179        2.37898        0.71971
H         -1.24412        2.68083        1.77766
H         -2.01911        2.79330        0.18577
N          1.13517        0.79653        0.61677
N         -1.17121        0.92691        0.57649
C          0.10472        2.95707        0.11671
C          0.17010        2.82826       -1.41421
C          0.21787        4.47192        0.31017
C          1.21505        3.86246       -1.85124
H         -0.82079        3.08493       -1.82453
H          0.39850        1.80725       -1.75543
C          1.23879        4.93679       -0.73875
H          0.49301        4.74913        1.34029
H         -0.76877        4.92297        0.11048
H          2.20470        3.39134       -1.95796
H          0.97493        4.28495       -2.83766
H          2.24307        5.01635       -0.29453
H          0.99533        5.93960       -1.11897
C          2.41327        0.02405        0.62455
C          2.20431       -1.40084        1.16100
C          3.01953       -0.02784       -0.78419
C          3.42919        0.69361        1.57608
H          1.46792       -1.93766        0.54306
H          1.78259       -1.34082        2.17870
C          3.51879       -2.18288        1.15544
H          3.18540        1.00032       -1.15288
H          2.29202       -0.50716       -1.46210
C          4.33632       -0.80670       -0.76820
H          3.00412        0.73951        2.59301
H          3.64793        1.72553        1.26767
C          4.75383       -0.07832        1.58554
H          3.31570       -3.20749        1.50698
C          4.07188       -2.23113       -0.27207
C          4.52647       -1.50470        2.08076
H          4.74655       -0.84015       -1.79075
C          5.32948       -0.11243        0.16699
H          5.45399        0.44511        2.25745
H          3.35094       -2.73312       -0.93803
H          5.00420       -2.82007       -0.29657
H          4.14564       -1.49324        3.11598
H          5.47913       -2.06067        2.09283
H          6.29432       -0.64671        0.16531
H          5.53094        0.91340       -0.18678
C         -2.52373        0.29422        0.56204
C         -3.48378        1.08403        1.47833
C         -3.10092        0.28109       -0.85982
C         -2.47783       -1.13573        1.12334
H         -3.58336        2.12758        1.14828
H         -3.07971        1.10214        2.50470
C         -4.88237        0.45612        1.46799
H         -2.41261       -0.28312       -1.51282
H         -3.14951        1.31373       -1.24854
C         -4.49251       -0.35510       -0.86305
H         -2.07287       -1.10372        2.14912
H         -1.78984       -1.75685        0.52916
C         -3.86715       -1.77464        1.10038
H         -5.53813        1.06210        2.11487
C         -5.42743        0.45648        0.03704
C         -4.81709       -0.97705        1.99108
H         -4.88111       -0.36353       -1.89451
C         -4.39204       -1.79045       -0.33847
H         -3.78135       -2.80830        1.47307
H         -5.51220        1.49108       -0.33768
H         -6.44282        0.02617        0.02135
H         -4.45940       -0.98659        3.03458
H         -5.82305       -1.42965        1.98998
H         -5.38111       -2.27740       -0.37494
H         -3.71476       -2.37831       -0.97955
Au        -0.12052       -1.40702       -1.05517
H         -0.16095       -2.44958       -2.27142
