50
6s_cypentane_dIterbutyl_auh.log	Energy: -548479.1144797
C         -0.12827        0.08777        0.58789
C          2.21437       -0.58775        0.84496
H          2.73619       -1.44085        0.39090
H          2.60003       -0.48574        1.87455
C          1.66750        1.76071        0.66984
H          2.02836        1.99997        1.68560
H          1.77151        2.67365        0.06524
N          0.78480       -0.86945        0.83729
N          0.26100        1.37268        0.68264
C          2.51639        0.67327        0.05736
C          2.27010        0.47018       -1.44666
C          4.01341        0.99391        0.09101
C          3.51260       -0.27401       -1.95256
H          2.19703        1.46282       -1.92134
H          1.32790       -0.05450       -1.66587
C          4.64625        0.06751       -0.95723
H          4.45040        0.87962        1.09587
H          4.14990        2.04952       -0.19870
H          3.33128       -1.35985       -1.97781
H          3.76026        0.01334       -2.98467
H          5.03635       -0.84598       -0.48223
H          5.50666        0.54478       -1.44847
C          0.41178       -2.31204        0.99428
C         -0.71803        2.50687        0.67620
C         -2.02663        2.11150        1.36084
H         -1.83296        1.71038        2.36691
H         -2.66106        3.00468        1.45611
H         -2.59021        1.35635        0.79355
C         -0.14052        3.66689        1.50136
H          0.74276        4.13481        1.04694
H         -0.90824        4.44822        1.58546
H          0.11816        3.34102        2.52013
C         -0.96746        2.96205       -0.76100
H         -1.42246        2.14432       -1.34234
H         -1.64773        3.82670       -0.78051
H         -0.02782        3.25976       -1.25296
C         -0.95983       -2.46036        1.65313
H         -1.13491       -3.52361        1.87261
H         -1.00001       -1.89653        2.59708
H         -1.77953       -2.10930        1.00923
C          0.44347       -3.00066       -0.36937
H         -0.30763       -2.54962       -1.03736
H          1.43484       -2.90392       -0.84057
H          0.22183       -4.07358       -0.26729
C          1.41364       -2.98503        1.94509
H          1.46866       -2.45349        2.90702
H          1.06630       -4.00739        2.14766
H          2.42737       -3.06900        1.53149
Au        -1.82856       -0.39186       -0.62066
H         -2.94051       -0.72720       -1.72440
