52
6s_cypentane_dIphme_auh.log	Energy: -690504.7235529
C         -0.04545        0.23596        0.30218
C          1.32761        2.23903        0.80142
H          2.26815        2.58189        0.34857
H          1.44514        2.34309        1.89529
C         -1.09849        2.40489        0.86894
H         -1.12991        2.50956        1.96822
H         -2.00106        2.88835        0.46757
C          2.34374        0.05727        0.34804
C          2.62834       -0.93786        1.28295
C          3.79903       -1.67958        1.17052
H          4.00466       -2.46486        1.90260
C          4.71218       -1.44510        0.13547
C          4.41621       -0.43360       -0.78480
H          5.10995       -0.23317       -1.60554
C          3.24431        0.31077       -0.68467
C          5.95214       -2.27949        0.00127
H          6.70996       -1.78218       -0.62048
H          5.71990       -3.24842       -0.47093
H          6.40043       -2.49604        0.98229
C         -2.43792        0.43301        0.29927
C         -2.81151       -0.08748       -0.94090
C         -4.08641       -0.61254       -1.11584
H         -4.36138       -1.02752       -2.08908
C         -5.02058       -0.62186       -0.07224
C         -4.63484       -0.07780        1.15670
H         -5.34381       -0.07215        1.98887
C         -3.35680        0.44302        1.34644
C         -6.38174       -1.22311       -0.26620
H         -6.81427       -0.93572       -1.23635
H         -7.07834       -0.91234        0.52513
H         -6.32843       -2.32417       -0.24863
N          1.14804        0.83240        0.45713
N         -1.13882        0.99367        0.48847
C          0.14741        3.06665        0.31500
C          0.14887        3.17904       -1.21761
C          0.28874        4.53001        0.74209
C          1.18263        4.26890       -1.53218
H         -0.85569        3.49327       -1.54535
H          0.36141        2.22094       -1.71561
C          1.27451        5.14575       -0.26116
H          0.60801        4.63831        1.79077
H         -0.69869        5.01388        0.65605
H          2.16162        3.82224       -1.76597
H          0.89606        4.84891       -2.42133
H          2.29759        5.13548        0.14501
H          1.03752        6.20071       -0.46130
H         -2.09241       -0.08412       -1.76169
H         -3.06721        0.84378        2.32035
H          3.01509        1.08061       -1.42582
H          1.91776       -1.13490        2.08765
Au        -0.17137       -1.79532       -0.21627
H         -0.26039       -3.35319       -0.61232
