82
6s_cypentane_dIdipp_auh.log	Energy: -937343.0442867
C         -0.03500        0.04306        0.16528
C          1.42957        1.29808        1.72353
H          2.38662        1.80146        1.52233
H          1.56288        0.72638        2.66055
C         -1.01049        1.54769        1.86766
H         -1.13684        0.98108        2.80912
H         -1.85724        2.24719        1.79963
C          2.33645       -0.30731        0.11369
C          2.78677       -1.45954        0.78203
C          3.95835       -2.06820        0.32435
H          4.32475       -2.96901        0.82271
C          4.65351       -1.55556       -0.76471
C          4.17611       -0.43017       -1.42661
H          4.71288       -0.04841       -2.29852
C          3.01098        0.21488       -1.00431
C          2.01198       -2.08209        1.92613
H          1.13708       -1.44402        2.12303
C          2.48685        1.40835       -1.77391
H          1.56855        1.73801       -1.26916
C         -2.41651        0.27761        0.30984
C         -3.02789        1.02941       -0.70934
C         -4.33880        0.70474       -1.06604
H         -4.83175        1.26545       -1.86392
C         -5.01940       -0.32750       -0.42988
C         -4.39080       -1.06545        0.56625
H         -4.92555       -1.88867        1.04623
C         -3.07804       -0.78242        0.95333
C         -2.28549        2.12261       -1.44816
H         -1.31766        2.25183       -0.94592
C         -2.39961       -1.63847        2.00359
H         -1.36951       -1.26820        2.11941
N          1.17989        0.37391        0.62286
N         -1.09294        0.63156        0.73616
C          0.30104        2.31153        1.88826
C          0.38997        3.42934        0.83571
C          0.47831        3.10445        3.18832
C          1.47116        4.38946        1.35451
H         -0.58559        3.93909        0.78509
H          0.60285        3.05342       -0.17470
C          1.56375        4.14031        2.87738
H          0.71833        2.46056        4.04922
H         -0.47634        3.60728        3.41877
H          2.43752        4.19273        0.86653
H          1.21986        5.43337        1.11734
H          2.55667        3.74797        3.14624
H          1.42906        5.05968        3.46530
C         -2.29810       -3.09004        1.53619
H         -1.73674       -3.69398        2.26580
H         -3.29430       -3.54531        1.42110
H         -1.78318       -3.14903        0.56486
C         -3.09157       -1.52467        3.36138
H         -2.55485       -2.11318        4.12201
H         -3.13876       -0.47991        3.70595
H         -4.12469       -1.90417        3.31724
C         -1.98821        1.69597       -2.88583
H         -1.44176        0.73936       -2.90178
H         -2.91685        1.56293       -3.46336
H         -1.37705        2.45581       -3.39854
C         -3.01579        3.46229       -1.38721
H         -3.21192        3.76905       -0.34781
H         -2.41629        4.25071       -1.86879
H         -3.98498        3.42212       -1.90895
C          2.09049        1.01240       -3.19577
H          2.96509        0.68945       -3.78244
H          1.36689        0.18204       -3.17875
H          1.62974        1.86444       -3.72017
C          3.47315        2.57491       -1.75849
H          3.03932        3.45768       -2.25399
H          3.74691        2.86007       -0.73070
H          4.40460        2.32199       -2.28928
C          1.47451       -3.45492        1.52201
H          0.84624       -3.87707        2.32179
H          0.86934       -3.37952        0.60540
H          2.29461       -4.16432        1.32921
C          2.83704       -2.14791        3.21019
H          3.71613       -2.80048        3.09027
H          3.20295       -1.15299        3.50813
H          2.23514       -2.55449        4.03797
H          5.56641       -2.04640       -1.11022
H         -6.04458       -0.56713       -0.72198
Au        -0.27058       -1.37451       -1.35159
H         -0.45276       -2.48415       -2.50578
