61
6s_cy4_mes_auh.log	Energy: -762938.8302637
C         -0.00961        0.35469        0.16915
C          1.27144        2.36916        0.81007
H          2.18511        2.79772        0.37098
H          1.40386        2.39815        1.90781
C         -1.18075        2.42058        0.86630
H         -1.26571        2.45097        1.96876
H         -2.09157        2.88808        0.46292
C          2.37992        0.24527        0.26464
C          2.82589       -0.46983        1.38613
C          4.04410       -1.14529        1.29726
H          4.39781       -1.70815        2.16594
C          4.81117       -1.13346        0.13046
C          4.32816       -0.42193       -0.97001
H          4.90542       -0.41460       -1.89908
C          3.11769        0.27155       -0.92753
C          1.98381       -0.57150        2.62218
H          1.58157        0.40137        2.94141
H          2.55679       -0.99650        3.45703
H          1.12045       -1.23030        2.42970
C          6.09578       -1.90500        0.04544
H          5.90792       -2.93525       -0.30006
H          6.59139       -1.97401        1.02459
H          6.79798       -1.44482       -0.66463
C          2.60093        0.98809       -2.13770
H          1.57421        0.66525       -2.37069
H          3.23274        0.78418       -3.01222
H          2.57956        2.08034       -1.99136
C         -2.39944        0.36473        0.27735
C         -3.07775        0.40010       -0.94942
C         -4.32586       -0.21879       -1.03025
H         -4.85986       -0.20247       -1.98474
C         -4.90035       -0.86769        0.06537
C         -4.18798       -0.89431        1.26626
H         -4.61349       -1.41169        2.13100
C         -2.93558       -0.29112        1.39431
C         -2.44850        1.03215       -2.15296
H         -2.18851        2.08741       -1.98021
H         -3.12049        0.98425       -3.01998
H         -1.51364        0.50755       -2.41089
C         -6.22607       -1.56034       -0.05973
H         -6.75227       -1.60398        0.90470
H         -6.09094       -2.59811       -0.40734
H         -6.87920       -1.05526       -0.78611
C         -2.15257       -0.40874        2.66736
H         -1.28005       -1.06400        2.50977
H         -2.76454       -0.84396        3.46851
H         -1.76932        0.56075        3.01953
N          1.15616        0.98839        0.35848
N         -1.13824        1.03731        0.40203
Au        -0.06256       -1.62614       -0.48950
C          0.04865        3.17953        0.42090
C          0.09016        3.67642       -1.04600
C          0.17191        4.65109        0.87177
C          0.65617        5.01699       -0.54435
H         -0.92587        3.79317       -1.45104
H          0.68009        3.08846       -1.76240
H         -0.81535        5.08357        1.09722
H          0.84221        4.85714        1.72121
H          0.25231        5.93482       -0.99436
H          1.75355        5.06037       -0.61033
H         -0.10312       -3.14981       -1.01086
