76
6s_cy3_dipp_auh.log	Energy: -886053.2337983
C         -0.00001        0.03651        0.38268
C          1.23499        0.63230        2.44685
H          2.13556        1.25179        2.56713
H          1.36674       -0.26069        3.08678
C         -1.23500        0.63229        2.44686
H         -1.36674       -0.26070        3.08679
H         -2.13557        1.25177        2.56714
C          2.39777        0.00751        0.37996
C          2.98188       -1.26924        0.42705
C          4.22973       -1.43875       -0.17931
H          4.70318       -2.42350       -0.16629
C          4.87000       -0.37769       -0.80918
C          4.26624        0.87449       -0.85367
H          4.76744        1.69733       -1.36935
C          3.02044        1.09304       -0.26127
C         -2.39778        0.00748        0.37998
C         -3.02049        1.09303       -0.26118
C         -4.26630        0.87448       -0.85357
H         -4.76753        1.69734       -1.36920
C         -4.87003       -0.37772       -0.80912
C         -4.22972       -1.43879       -0.17932
H         -4.70315       -2.42355       -0.16633
C         -2.98186       -1.26928        0.42702
N          1.14783        0.22643        1.04672
N         -1.14785        0.22641        1.04673
Au        -0.00000       -0.54049       -1.62620
C         -0.00001        1.39149        2.83711
C         -0.00001        2.89149        2.73493
C         -0.00000        2.22170        4.07924
H         -0.91808        3.38290        2.40252
H          0.91806        3.38291        2.40250
H          0.91779        2.25168        4.67307
H         -0.91779        2.25168        4.67308
C         -2.35412        2.44996       -0.36055
H         -1.40791        2.39237        0.19701
C         -2.27972       -2.45081        1.06455
H         -1.32888       -2.08510        1.48160
C          2.27978       -2.45076        1.06466
H          1.32895       -2.08506        1.48170
C          2.35406        2.44996       -0.36065
H          1.40776        2.39233        0.19676
C          3.09222       -3.04422        2.21446
H          2.53943       -3.86571        2.69651
H          4.05081       -3.45499        1.86012
H          3.32002       -2.28763        2.98138
C          1.92824       -3.50132        0.01150
H          1.33018       -3.05386       -0.79765
H          2.83502       -3.93598       -0.43799
H          1.34870       -4.32297        0.46066
C         -3.09212       -3.04433        2.21435
H         -4.05071       -3.45512        1.86001
H         -2.53931       -3.86584        2.69636
H         -3.31992       -2.28779        2.98131
C         -1.92818       -3.50132        0.01134
H         -1.33016       -3.05382       -0.79782
H         -1.34862       -4.32298        0.46044
H         -2.83497       -3.93598       -0.43813
C         -3.19954        3.55173        0.27598
H         -2.66559        4.51472        0.24863
H         -4.15357        3.68949       -0.25694
H         -3.44070        3.32366        1.32637
C         -1.99531        2.77135       -1.81133
H         -1.43722        3.71899       -1.87250
H         -1.37250        1.97179       -2.24252
H         -2.89788        2.87053       -2.43500
C          3.19938        3.55169        0.27609
H          4.15351        3.68946       -0.25665
H          2.66545        4.51469        0.24870
H          3.44036        3.32356        1.32651
C          1.99547        2.77147       -1.81146
H          2.89814        2.87074       -2.43498
H          1.37275        1.97193       -2.24282
H          1.43736        3.71909       -1.87264
H         -5.84393       -0.53065       -1.28014
H          5.84389       -0.53062       -1.28022
H          0.00000       -0.98538       -3.17465
