77
6s_cyhexane_dIad_auh.log	Energy: -864811.7042055
C         -0.09859        0.15002        0.29162
C          1.25197        2.02703        1.00130
H          2.28957        2.34346        0.89604
H          0.98859        2.13979        2.06987
C         -1.05768        2.42515        0.48939
H         -1.36210        2.81490        1.47416
H         -1.76023        2.83635       -0.25273
N          1.11965        0.64030        0.58595
N         -1.16222        0.96648        0.46152
C          0.33760        2.91457        0.16956
C          0.63770        2.79838       -1.33443
C          0.47028        4.37992        0.60475
C          1.97866        3.40883       -1.72333
H         -0.16533        3.32931       -1.87592
H          0.58231        1.74747       -1.65747
C          1.80127        5.01177        0.20894
H         -0.35283        4.95150        0.13904
H          0.31909        4.45537        1.69532
C          2.07322        4.86511       -1.28371
H          2.12060        3.32450       -2.81239
H          2.80315        2.83016       -1.26979
H          1.80522        6.07464        0.49873
H          2.62335        4.54359        0.77867
H          3.05977        5.28514       -1.53724
H          1.32943        5.45840       -1.84599
C         -2.56518        0.44288        0.42591
C         -2.67876       -0.87228        1.21430
C         -3.53159        1.43264        1.11448
C         -3.03574        0.24764       -1.02206
H         -2.36618       -0.68755        2.25641
H         -1.98963       -1.62572        0.80141
C         -4.10526       -1.41992        1.15975
H         -3.52591        2.41060        0.61300
H         -3.21532        1.59500        2.15871
C         -4.97002        0.90085        1.08032
H         -2.34898       -0.45176       -1.52981
H         -2.97883        1.21169       -1.55804
C         -4.46504       -0.29689       -1.04943
H         -4.13072       -2.38360        1.69400
C         -5.05853       -0.42950        1.82475
C         -4.50959       -1.63332       -0.30233
H         -5.62239        1.64585        1.56524
C         -5.40506        0.70357       -0.37387
H         -4.77041       -0.44841       -2.09763
H         -4.78709       -0.29312        2.88530
H         -6.09370       -0.80992        1.80226
H         -3.82472       -2.35300       -0.78012
H         -5.52445       -2.06231       -0.35454
H         -6.44515        0.33821       -0.40924
H         -5.38497        1.66685       -0.91201
C          2.34507       -0.22564        0.55292
C          2.73880       -0.56794       -0.89184
C          3.55809        0.47831        1.19353
C          2.09705       -1.50566        1.36999
H          2.95553        0.36769       -1.43605
H          1.88647       -1.05153       -1.40000
C          3.95412       -1.49669       -0.91159
H          3.32612        0.78056        2.22829
H          3.82418        1.38723        0.63070
C          4.78915       -0.43890        1.18180
H          1.21707       -2.03557        0.97195
H          1.85992       -1.21961        2.40931
C          3.31350       -2.42870        1.32317
H          4.19105       -1.74927       -1.95793
C          5.14569       -0.78999       -0.26391
C          3.62832       -2.77619       -0.13514
H          5.62484        0.10764        1.64931
C          4.50659       -1.72096        1.96289
H          3.07961       -3.35033        1.88063
H          5.39844        0.12429       -0.82779
H          6.03791       -1.43803       -0.28551
H          2.76413       -3.28340       -0.59471
H          4.48138       -3.47387       -0.18192
H          5.39701       -2.37182        1.95448
H          4.28811       -1.48649        3.01860
Au        -0.32526       -1.68314       -0.80198
H         -0.48655       -2.97910       -1.73661
