49
6s_cy4_ptolu_auh.log	Energy: -664428.5452230
C         -0.01753        0.39679        0.26102
C          1.19995        2.51864        0.67403
H          2.08258        2.93006        0.16284
H          1.35505        2.67515        1.75732
C         -1.22904        2.47673        0.83110
H         -1.21825        2.59303        1.93017
H         -2.18274        2.88312        0.46557
C          2.37814        0.40520        0.29312
C          2.74599       -0.51905        1.27090
C          3.96890       -1.17419        1.18021
H          4.24006       -1.90539        1.94617
C          4.85243       -0.92146        0.12394
C          4.47206        0.01872       -0.83985
H          5.14132        0.23098       -1.67776
C          3.24775        0.67634       -0.76110
C          6.15126       -1.66489        0.01429
H          6.86422       -1.14111       -0.63803
H          5.98972       -2.66947       -0.41050
H          6.62218       -1.80106        0.99913
C         -2.41965        0.40064        0.29047
C         -2.75179       -0.19313       -0.92856
C         -3.98257       -0.82071       -1.08052
H         -4.22431       -1.29116       -2.03720
C         -4.91423       -0.86227       -0.03551
C         -4.57224       -0.24376        1.17096
H         -5.28026       -0.26038        2.00379
C         -3.33798        0.38005        1.33825
C         -6.22530       -1.57262       -0.20379
H         -6.94476       -1.28513        0.57580
H         -6.08835       -2.66492       -0.14327
H         -6.67705       -1.35723       -1.18379
N          1.12674        1.09038        0.38301
N         -1.16757        1.06472        0.45715
Au         0.02206       -1.65162       -0.20275
C         -0.06314        3.21168        0.21482
C         -0.10317        3.41836       -1.31914
C         -0.00363        4.74336        0.38839
C          0.35551        4.87389       -1.10537
H         -1.12949        3.35027       -1.71020
H          0.53671        2.75645       -1.92266
H         -0.99487        5.16236        0.62034
H          0.71548        5.13033        1.12736
H         -0.16836        5.65230       -1.67771
H          1.43581        5.00412       -1.26693
H          2.95447        1.38948       -1.53538
H          2.05897       -0.73073        2.09223
H         -2.03546       -0.16443       -1.75125
H         -3.08138        0.83823        2.29594
H          0.06158       -3.22241       -0.55239
