58
6s_cy3_mes_auh.log	Energy: -738312.0152231
C          0.00000        0.49784        0.18326
C          1.23758        2.56232        0.76775
H          2.13612        2.99506        0.30382
H          1.37292        2.63674        1.86295
C         -1.23760        2.56231        0.76776
H         -1.37294        2.63673        1.86295
H         -2.13615        2.99504        0.30383
C          2.39178        0.45503        0.24724
C          2.92541       -0.19504        1.36843
C          4.16230       -0.82817        1.23457
H          4.58682       -1.34234        2.10170
C          4.86130       -0.83368        0.02528
C          4.28974       -0.18716       -1.07355
H          4.81388       -0.19559       -2.03361
C          3.05611        0.45921       -0.98736
C          2.15345       -0.27252        2.65123
H          1.78650        0.71060        2.98250
H          2.76689       -0.69717        3.45695
H          1.27017       -0.91903        2.51632
C          6.16999       -1.55738       -0.10378
H          6.00694       -2.60174       -0.41810
H          6.71317       -1.58444        0.85185
H          6.81963       -1.08741       -0.85629
C          2.42035        1.08401       -2.19163
H          1.49526        0.54318       -2.45183
H          3.09466        1.05005       -3.05754
H          2.13711        2.13314       -2.01726
C         -2.39178        0.45501        0.24725
C         -3.05612        0.45918       -0.98735
C         -4.28973       -0.18721       -1.07354
H         -4.81387       -0.19565       -2.03360
C         -4.86129       -0.83373        0.02531
C         -4.16228       -0.82822        1.23458
H         -4.58679       -1.34242        2.10170
C         -2.92539       -0.19508        1.36844
C         -2.42036        1.08398       -2.19161
H         -2.13715        2.13312       -2.01726
H         -3.09466        1.04999       -3.05754
H         -1.49526        0.54317       -2.45180
C         -6.17004       -1.55731       -0.10378
H         -6.71199       -1.58672        0.85247
H         -6.00728       -2.60088       -0.42087
H         -6.82071       -1.08560       -0.85433
C         -2.15342       -0.27258        2.65123
H         -1.27018       -0.91915        2.51632
H         -2.76687       -0.69717        3.45696
H         -1.78641        0.71052        2.98248
N          1.14929        1.15952        0.37189
N         -1.14930        1.15951        0.37189
Au         0.00001       -1.50846       -0.39957
C         -0.00002        3.29956        0.34048
C         -0.00002        4.03924       -0.96657
C         -0.00003        4.79427        0.33164
H         -0.91707        4.03397       -1.56125
H          0.91702        4.03398       -1.56125
H          0.91775        5.30698        0.63311
H         -0.91781        5.30697        0.63311
H          0.00002       -3.05221       -0.85888
