53
6s_cyhexane_dIterbutyl_auh.log	Energy: -573167.0488680
C         -0.32703        0.09223        0.62461
C          1.99598       -0.60768        1.00520
H          2.52202       -1.46931        0.57507
H          2.33213       -0.52047        2.05346
C          1.47532        1.74145        0.81937
H          1.77040        1.95991        1.86104
H          1.62991        2.66338        0.24057
N          0.56406       -0.86986        0.92755
N          0.06798        1.37310        0.73399
C          2.36763        0.65639        0.24863
C          2.14048        0.50719       -1.26724
C          3.83338        1.02531        0.51202
C          3.13117       -0.44068       -1.93319
H          2.24694        1.50932       -1.71993
H          1.10721        0.18699       -1.47540
C          4.82574        0.07201       -0.14530
H          4.00404        2.04410        0.11938
H          4.01126        1.08040        1.59971
C          4.57370       -0.04377       -1.64409
H          2.94573       -0.45901       -3.01869
H          2.95582       -1.47416       -1.58588
H          5.85355        0.41865        0.04765
H          4.75287       -0.92720        0.31955
H          5.27299       -0.76420       -2.09786
H          4.78128        0.93212       -2.11958
C          0.16415       -2.30510        1.08786
C         -1.24154       -2.42362        1.67768
H         -2.02194       -2.07500        0.98557
H         -1.44191       -3.48017        1.90773
H         -1.32309       -1.84107        2.60750
C          1.10667       -2.97529        2.09935
H          0.73735       -3.99085        2.29722
H          2.13959       -3.07578        1.74052
H          1.11747       -2.43083        3.05559
C         -0.89556        2.51775        0.65440
C         -2.25078        2.14161        1.25395
H         -2.12837        1.74615        2.27336
H         -2.88005        3.04223        1.30100
H         -2.78443        1.38826        0.65612
C         -0.36217        3.67904        1.50733
H          0.55216        4.13701        1.10758
H         -1.12716        4.46698        1.53697
H         -0.17189        3.35845        2.54269
C         -1.04380        2.96302       -0.79963
H         -0.07015        3.24642       -1.23000
H         -1.46809        2.14503       -1.40342
H         -1.71190        3.83438       -0.87135
C          0.25372       -3.01965       -0.25975
H          0.00257       -4.08526       -0.14989
H         -0.44983       -2.56571       -0.97579
H          1.27042       -2.95411       -0.67861
Au        -1.95362       -0.38393       -0.68264
H         -2.99746       -0.71992       -1.85087
