46
6s_cy3_ptolu_auh.log	Energy: -639800.7779304
C          0.00000        0.57691        0.21817
C          1.23017        2.67798        0.69312
H          2.13528        3.09004        0.22593
H          1.34063        2.81001        1.78542
C         -1.23016        2.67799        0.69312
H         -1.34062        2.81002        1.78542
H         -2.13526        3.09005        0.22592
C          2.39360        0.55334        0.29946
C          2.71076       -0.42470        1.24209
C          3.92542       -1.09673        1.16281
H          4.15676       -1.86878        1.90126
C          4.85130       -0.80834        0.15320
C          4.52121        0.18427       -0.77611
H          5.22342        0.42441       -1.57879
C          3.30550        0.85850       -0.70916
C          6.14113       -1.56854        0.05280
H          6.89115       -1.01855       -0.53306
H          5.98201       -2.54073       -0.44253
H          6.56530       -1.77608        1.04633
C         -2.39360        0.55335        0.29946
C         -3.30549        0.85849       -0.70918
C         -4.52119        0.18426       -0.77612
H         -5.22340        0.42439       -1.57882
C         -4.85130       -0.80832        0.15320
C         -3.92543       -1.09670        1.16283
H         -4.15678       -1.86874        1.90129
C         -2.71077       -0.42467        1.24210
C         -6.14112       -1.56853        0.05281
H         -6.56535       -1.77598        1.04634
H         -5.98198       -2.54077       -0.44242
H         -6.89111       -1.01859       -0.53315
N          1.15043        1.25307        0.37570
N         -1.15043        1.25307        0.37570
Au        -0.00001       -1.44404       -0.35184
C          0.00001        3.37218        0.19087
C          0.00001        3.93051       -1.20185
C          0.00001        4.85195       -0.01467
H         -0.91751        3.83981       -1.78945
H          0.91753        3.83981       -1.78944
H          0.91755        5.40029        0.21633
H         -0.91753        5.40029        0.21632
H         -3.05065        1.61037       -1.46002
H         -1.99173       -0.66300        2.02784
H          1.99171       -0.66304        2.02782
H          3.05068        1.61039       -1.45999
H         -0.00001       -2.97861       -0.83697
