64
6s_cypentane_dImes_auh.log	Energy: -789249.5901635
C         -0.03749        0.21698        0.17527
C          1.37708        2.12841        0.85571
H          2.32860        2.48606        0.43568
H          1.49813        2.12962        1.95467
C         -1.06561        2.35482        0.87929
H         -1.16941        2.37467        1.97987
H         -1.93546        2.88990        0.46851
C          2.33807       -0.05798        0.28622
C          2.73550       -0.80500        1.40480
C          3.90810       -1.55700        1.31428
H          4.22386       -2.14495        2.18096
C          4.67605       -1.58922        0.14858
C          4.24059       -0.84418       -0.94981
H          4.81824       -0.86994       -1.87832
C          3.07684       -0.07533       -0.90560
C          1.88647       -0.85834        2.63910
H          1.55306        0.13734        2.96714
H          2.42683       -1.33008        3.47059
H          0.97929       -1.45288        2.43990
C          5.90964       -2.43977        0.06144
H          5.66072       -3.44850       -0.30811
H          6.38788       -2.56029        1.04419
H          6.64844       -2.01117       -0.63114
C          2.60096        0.66911       -2.11548
H          1.58569        0.34161       -2.39138
H          3.26398        0.48982       -2.97207
H          2.56098        1.75632       -1.94399
C         -2.42095        0.39203        0.27996
C         -3.11185        0.49883       -0.93579
C         -4.39858       -0.03551       -1.01181
H         -4.94239        0.03634       -1.95818
C         -5.00058       -0.66935        0.07797
C         -4.27630       -0.76826        1.26766
H         -4.72400       -1.27469        2.12766
C         -2.98527       -0.25129        1.39039
C         -2.46073        1.11851       -2.13424
H         -2.16881        2.16413       -1.95415
H         -3.13397        1.09870       -3.00140
H         -1.54367        0.56600       -2.39670
C         -6.37045       -1.27073       -0.04331
H         -7.00296       -0.69898       -0.73789
H         -6.88028       -1.31524        0.92979
H         -6.30935       -2.30176       -0.42971
C         -2.19706       -0.44857        2.65025
H         -1.39373       -1.18332        2.47562
H         -2.83461       -0.82773        3.45995
H         -1.71661        0.47790        2.99846
N          1.16712        0.76587        0.38229
N         -1.11642        0.97702        0.40150
C          0.22132        3.04372        0.46248
C          0.27232        3.40222       -1.03042
C          0.38372        4.42195        1.11246
C          1.35433        4.48347       -1.14204
H         -0.70682        3.81922       -1.31719
H          0.45079        2.53154       -1.67644
C          1.42500        5.15055        0.25166
H          0.66157        4.35973        2.17653
H         -0.58677        4.94410        1.06461
H          2.32634        4.04037       -1.40995
H          1.12127        5.20259       -1.94058
H          2.43099        5.04081        0.68486
H          1.22776        6.23149        0.20969
Au        -0.22257       -1.74564       -0.51243
H         -0.36400       -3.25402       -1.06034
