68
6s_cy3_ad_auh.log	Energy: -789096.2621844
C          0.00003        0.51617        0.18612
C          1.22306        2.64437        0.27227
H          2.11219        2.93278       -0.30480
H          1.32352        3.09034        1.27763
C         -1.22306        2.64415        0.27309
H         -1.32253        3.08956        1.27880
H         -2.11267        2.93300       -0.30299
N          1.15927        1.18637        0.33891
N         -1.15934        1.18612        0.33887
Au         0.00026       -1.33510       -0.90228
C         -0.00027        3.15745       -0.41320
C         -0.00082        3.25992       -1.90928
C         -0.00057        4.50249       -1.06284
H         -0.91844        2.98847       -2.43798
H          0.91643        2.98856       -2.43866
H          0.91672        5.09593       -1.01293
H         -0.91789        5.09584       -1.01226
C         -2.47207        0.48230        0.45364
C         -2.33543       -0.82551        1.24945
C         -3.47507        1.35697        1.23745
C         -3.05572        0.19566       -0.93637
H         -1.93059       -0.59345        2.24924
H         -1.61147       -1.49547        0.76018
C         -3.68204       -1.54263        1.35459
H         -3.64296        2.32085        0.73647
H         -3.06930        1.57462        2.23987
C         -4.83204        0.65260        1.35530
H         -2.33759       -0.42657       -1.49808
H         -3.17167        1.14450       -1.49017
C         -4.40428       -0.51619       -0.81073
H         -3.53057       -2.49127        1.89477
C         -4.67560       -0.66453        2.11194
C         -4.21036       -1.83320       -0.05351
H         -5.52041        1.31909        1.90082
C         -5.38394        0.37716       -0.04612
H         -4.79650       -0.72302       -1.81986
H         -4.31324       -0.47557        3.13659
H         -5.65175       -1.17023        2.20232
H         -3.49931       -2.47735       -0.59637
H         -5.16657       -2.37977        0.00660
H         -6.37017       -0.11101        0.02759
H         -5.53613        1.32601       -0.58887
C          2.47200        0.48257        0.45372
C          3.05510        0.19494       -0.93632
C          3.47535        1.35769        1.23657
C          2.33553       -0.82466        1.25053
H          3.17092        1.14340       -1.49079
H          2.33664       -0.42758       -1.49731
C          4.40361       -0.51697       -0.81071
H          3.06999        1.57601        2.23902
H          3.64312        2.32124        0.73491
C          4.83230        0.65326        1.35437
H          1.61124       -1.49486        0.76209
H          1.93118       -0.59179        2.25034
C          3.68210       -1.54186        1.35560
H          4.79543       -0.72454       -1.81984
C          5.38366        0.37681       -0.04707
C          4.20983       -1.83344       -0.05252
H          5.52095        1.32006        1.89917
C          4.67605       -0.66334        2.11196
H          3.53076       -2.49012        1.89650
H          5.53572        1.32527       -0.59054
H          6.36987       -0.11141        0.02660
H          3.49848       -2.47786       -0.59467
H          5.16599       -2.38010        0.00759
H          5.65219       -1.16906        2.20227
H          4.31412       -0.47365        3.13662
H          0.00036       -2.58838       -1.90147
