67
6s_cyhexane_dImes_auh.log	Energy: -813937.4441735
C         -0.06914        0.07633        0.17403
C          1.49716        1.86269        0.87895
H          2.48016        2.13065        0.46755
H          1.61210        1.84900        1.97836
C         -0.91716        2.28877        0.87259
H         -1.03455        2.30603        1.97215
H         -1.73374        2.90012        0.45893
C          2.27136       -0.39513        0.29587
C          2.64469       -1.13368        1.42814
C          3.74885       -1.98200        1.32929
H          4.04527       -2.56379        2.20689
C          4.47022       -2.11848        0.14150
C          4.05582       -1.38241       -0.97087
H          4.59442       -1.49096       -1.91670
C          2.96007       -0.51958       -0.91942
C          1.83417       -1.07595        2.68824
H          1.65887       -0.04594        3.03333
H          2.32781       -1.62642        3.50005
H          0.84554       -1.53292        2.51784
C          5.62776       -3.06930        0.04722
H          5.28812       -4.06275       -0.29013
H          6.12016       -3.20492        1.02092
H          6.38063       -2.71951       -0.67396
C          2.49452        0.20550       -2.14486
H          1.46331       -0.09451       -2.39381
H          3.13613       -0.02618       -3.00520
H          2.49400        1.29695       -2.00691
C         -2.43129        0.45219        0.26892
C         -3.12642        0.62829       -0.93578
C         -4.45378        0.20110       -0.99994
H         -4.99956        0.32187       -1.94009
C         -5.09323       -0.39002        0.09187
C         -4.36164       -0.56881        1.26818
H         -4.83510       -1.05571        2.12570
C         -3.03174       -0.16035        1.37889
C         -2.44251        1.20100       -2.13939
H         -2.08185        2.22576       -1.96333
H         -3.12165        1.22495       -3.00184
H         -1.56616        0.58872       -2.40744
C         -6.53100       -0.81288        0.00882
H         -6.82877       -1.02601       -1.02769
H         -7.19759       -0.01953        0.38683
H         -6.72060       -1.71298        0.61146
C         -2.24398       -0.44891        2.62130
H         -1.53122       -1.26763        2.42612
H         -2.90212       -0.75940        3.44371
H         -1.65571        0.41647        2.96055
N          1.17318        0.52361        0.39816
N         -1.08181        0.92672        0.38171
C          0.43220        2.88653        0.48863
C          0.47850        3.19559       -1.01766
C          0.62750        4.18605        1.28229
C          1.71134        3.98902       -1.43734
H         -0.41996        3.78722       -1.26672
H          0.40193        2.26219       -1.59510
C          1.86685        4.97190        0.86940
H         -0.26512        4.81774        1.12297
H          0.65456        3.95751        2.36136
C          1.85915        5.26949       -0.62514
H          1.65016        4.21691       -2.51336
H          2.62093        3.37507       -1.31444
H          1.92010        5.90700        1.44922
H          2.77775        4.40385        1.12830
H          2.77468        5.80843       -0.91635
H          1.01438        5.94407       -0.85463
Au        -0.41265       -1.86664       -0.50831
H         -0.67726       -3.36063       -1.04994
