44
6s_cy3_tbu_auh.log	Energy: -498087.2295703
C         -0.28044        0.00000        0.43853
C         -2.40835        1.22127        0.29598
H         -2.63530        2.11522       -0.30157
H         -2.95737        1.31546        1.24973
C         -2.40814       -1.22161        0.29594
H         -2.95718       -1.31594        1.24967
H         -2.63489       -2.11559       -0.30166
N         -0.96544        1.15773        0.51518
N         -0.96525       -1.15781        0.51518
Au         1.66248        0.00010       -0.45937
C         -2.84768       -0.00020       -0.44286
C         -2.79646       -0.00017       -1.94138
C         -4.11924       -0.00031       -1.22664
H         -2.47280       -0.91741       -2.44051
H         -2.47299        0.91714       -2.44049
H         -4.71477        0.91693       -1.23742
H         -4.71460       -0.91766       -1.23744
C         -0.28535       -2.48055        0.69887
C         -0.28567        2.48054        0.69884
C         -1.23786       -3.43279        1.43805
H         -2.12123       -3.71785        0.85126
H         -0.69315       -4.35968        1.66385
H         -1.57293       -3.00113        2.39320
C          0.95163       -2.34771        1.58778
H          1.75726       -1.77162        1.10922
H          0.69538       -1.85535        2.53783
H          1.34034       -3.35260        1.80793
C          0.07791       -3.06462       -0.66561
H         -0.81544       -3.17618       -1.30089
H          0.79343       -2.40427       -1.18101
H          0.53686       -4.05821       -0.55175
C          0.95098        2.34783        1.58823
H          0.69426        1.85597        2.53840
H          1.75661        1.77132        1.11020
H          1.33988        3.35272        1.80806
C         -1.23843        3.43293        1.43752
H         -0.69370        4.35975        1.66358
H         -2.12145        3.71813        0.85026
H         -1.57405        3.00136        2.39251
C          0.07801        3.06443       -0.66558
H          0.53714        4.05792       -0.55167
H          0.79352        2.40389       -1.18078
H         -0.81519        3.17613       -1.30104
H          2.99608        0.00016       -1.34792
