71
6s_cy4_ad_auh.log	Energy: -813724.2121763
C         -0.01276        0.35872        0.29702
C          1.22542        2.45259        0.59329
H          2.13260        2.78404        0.06863
H          1.30391        2.80692        1.63641
C         -1.19679        2.48474        0.59955
H         -1.26473        2.83532        1.64497
H         -2.09400        2.84255        0.07573
N          1.15222        0.99869        0.51933
N         -1.16071        1.02829        0.51736
Au        -0.03010       -1.34892       -1.00326
C          0.01775        3.06108       -0.07211
C          0.07686        2.96052       -1.61684
C          0.10843        4.59549       -0.19951
C          0.55961        4.42312       -1.66365
H         -0.92567        2.82974       -2.05151
H          0.73141        2.18145       -2.03607
H         -0.88288        5.06771       -0.11843
H          0.79218        5.11029        0.49391
H          0.09259        5.08112       -2.41010
H          1.65083        4.50293       -1.77859
C          2.45892        0.27624        0.55710
C          3.04799        0.14618       -0.85383
C          3.46231        1.04866        1.44124
C          2.30913       -1.11329        1.19667
H          3.17388        1.15102       -1.29525
H          2.32904       -0.40369       -1.48587
C          4.39164       -0.58410       -0.80382
H          3.05073        1.15227        2.45948
H          3.63758        2.06281        1.05542
C          4.81442        0.32694        1.48420
H          1.58413       -1.71800        0.63009
H          1.89940       -0.99490        2.21420
C          3.65107       -1.84620        1.22608
H          4.78847       -0.67656       -1.82800
C          5.37203        0.20999        0.06288
C          4.18561       -1.97756       -0.20319
H          5.50407        0.92190        2.10554
C          4.64566       -1.06719        2.08398
H          3.49095       -2.84933        1.65359
H          5.53240        1.21367       -0.36717
H          6.35510       -0.28951        0.08463
H          3.47403       -2.55099       -0.81968
H          5.13822       -2.53365       -0.20108
H          5.61808       -1.58663        2.12058
H          4.27868       -0.99456        3.12174
C         -2.48695        0.34151        0.54374
C         -2.38165       -1.05894        1.16851
C         -3.47199        1.13245        1.43216
C         -3.07098        0.24319       -0.87179
H         -1.97476       -0.96449        2.18967
H         -1.67178       -1.67902        0.59930
C         -3.74484       -1.75249        1.18182
H         -3.61543        2.15595        1.05843
H         -3.06274        1.21128        2.45356
C         -4.84497        0.45054        1.45932
H         -2.36465       -0.32170       -1.50462
H         -3.16283        1.25543       -1.30431
C         -4.43630       -0.44621       -0.83722
H         -3.61622       -2.76471        1.59841
C         -4.72108       -0.95483        2.04354
C         -4.27543       -1.85191       -0.25158
H         -5.52039        1.05841        2.08379
C         -5.39738        0.36683        0.03358
H         -4.83019       -0.51512       -1.86440
H         -4.35815       -0.90524        3.08408
H         -5.70855       -1.44580        2.06857
H         -3.57801       -2.43950       -0.87092
H         -5.24414       -2.37938       -0.26028
H         -6.39508       -0.10315        0.04401
H         -5.52509        1.37987       -0.38532
H         -0.03981       -2.46937       -2.14904
