47
6s_cy4_tbu_auh.log	Energy: -522715.2156459
C          0.07365        0.04738        0.53636
C          2.34979       -0.85944        0.62312
H          2.75800       -1.73211        0.09316
H          2.81570       -0.84023        1.62444
C          2.02348        1.53800        0.57152
H          2.47013        1.69256        1.57014
H          2.18437        2.46108       -0.00363
N          0.90157       -1.00199        0.70348
N          0.58859        1.28639        0.65307
Au        -1.73872       -0.22647       -0.56676
C          2.70214        0.39659       -0.13306
C          2.45705        0.26415       -1.65666
C          4.21246        0.52371       -0.41894
C          3.96216       -0.00749       -1.84445
H          2.14088        1.22086       -2.09912
H          1.74263       -0.50896       -1.97735
H          4.53802        1.57551       -0.41424
H          4.89023       -0.04881        0.23396
H          4.46718        0.51671       -2.66807
H          4.18810       -1.08014       -1.93782
C          0.39787       -2.40573        0.84863
C         -0.27618        2.50729        0.73912
C          1.38865       -3.20154        1.71183
H          2.36173       -3.36494        1.22996
H          1.55421       -2.71115        2.68293
H          0.95901       -4.19355        1.90738
C          0.27106       -3.05235       -0.52987
H         -0.05677       -4.09870       -0.43799
H         -0.46843       -2.50568       -1.13661
H          1.23559       -3.04716       -1.06251
C         -0.93582       -2.43983        1.59547
H         -0.85907       -1.90141        2.55192
H         -1.75740       -1.99366        1.01597
H         -1.19934       -3.48705        1.80345
C          0.45825        3.57917        1.55865
H          1.35291        3.97803        1.06250
H         -0.22488        4.42550        1.71350
H          0.74586        3.19583        2.54923
C         -0.56575        3.03227       -0.66623
H         -1.12919        2.28055       -1.24168
H         -1.16128        3.95635       -0.61911
H          0.36746        3.25912       -1.20614
C         -1.57327        2.21348        1.49340
H         -2.23970        1.53448        0.94145
H         -1.35877        1.76171        2.47346
H         -2.11221        3.15852        1.65398
H         -2.95015       -0.41691       -1.59820
