60
6s_dime_dImes_auh.log	Energy: -740648.7135417
C         -1.22738        2.57607        0.61194
C         -0.00000        3.35540        0.14574
C          1.22737        2.57607        0.61195
C         -0.00000        0.49126        0.09406
H         -2.14034        2.99198        0.15866
H          1.34435        2.67476        1.70690
C          0.00001        3.49678       -1.37605
H         -0.88873        4.05199       -1.71317
H          0.88874        4.05199       -1.71315
H          0.00001        2.51960       -1.87670
C         -0.00000        4.73410        0.79802
H          0.88884        5.30949        0.49620
H         -0.88884        5.30950        0.49618
H         -0.00001        4.66128        1.89688
N          1.14685        1.16574        0.25056
N         -1.14686        1.16574        0.25054
H          2.14033        2.99197        0.15867
H         -1.34436        2.67476        1.70689
C          2.39040        0.44988        0.21299
C          3.12251        0.39856       -0.98211
C          2.86021       -0.15797        1.38622
C          4.35231       -0.26073       -0.97475
C          4.09729       -0.80373        1.34570
C          4.85974       -0.86538        0.17775
H          4.92602       -0.31247       -1.90462
H          4.47011       -1.28310        2.25549
C         -2.39041        0.44989        0.21294
C         -2.86022       -0.15799        1.38618
C         -3.12249        0.39859       -0.98213
C         -4.09729       -0.80373        1.34565
C         -4.35233       -0.26070       -0.97479
C         -4.85975       -0.86536        0.17768
H         -4.47011       -1.28313        2.25544
H         -4.92604       -0.31242       -1.90465
C          2.02575       -0.18441        2.63126
H          1.59729        0.79883        2.87559
H          1.18083       -0.88007        2.49698
H          2.61352       -0.52576        3.49377
C          2.57317        0.98762       -2.24527
H          1.60355        0.52524       -2.49157
H          2.40586        2.07215       -2.15970
H          3.25753        0.81742       -3.08687
C          6.16672       -1.60272        0.14784
H          6.01314       -2.65363       -0.14894
H          6.86550       -1.15801       -0.57550
H          6.65034       -1.60876        1.13525
C         -2.57317        0.98766       -2.24530
H         -2.40585        2.07219       -2.15972
H         -1.60356        0.52528       -2.49161
H         -3.25754        0.81747       -3.08690
C         -2.02575       -0.18445        2.63121
H         -1.18071       -0.87995        2.49684
H         -1.59745        0.79884        2.87566
H         -2.61345       -0.52600        3.49369
C         -6.16671       -1.60275        0.14794
H         -6.86401       -1.16080       -0.57850
H         -6.01258       -2.65482       -0.14436
H         -6.65233       -1.60494        1.13441
Au         0.00000       -1.53122       -0.42367
H          0.00001       -3.08660       -0.84307
