72
6s_dih_dIdipp_auh.log	Energy: -839373.8155117
C          0.00001       -0.04523        0.56521
C         -1.23530       -0.16032        2.71051
H         -2.14350       -0.72728        2.96196
H         -1.36367        0.85420        3.13082
C          0.00001       -0.82859        3.27300
H         -0.00056       -1.89585        2.99741
H          0.00018       -0.77255        4.37083
C          1.23581       -0.16143        2.71025
H          1.36540        0.85281        3.13085
H          2.14356       -0.72941        2.96118
C         -2.39829       -0.00795        0.55868
C         -2.95896        1.25168        0.28898
C         -4.20485        1.28968       -0.34348
H         -4.66014        2.25595       -0.57368
C         -4.86620        0.11866       -0.69449
C         -4.28788       -1.11695       -0.42417
H         -4.80673       -2.03180       -0.72046
C         -3.04604       -1.20588        0.20871
C         -2.24125        2.54216        0.62785
H         -1.28310        2.27425        1.09888
C         -2.40621       -2.55854        0.44680
H         -1.48832       -2.39126        1.03062
C          2.39836       -0.00829        0.55835
C          3.04610       -1.20610        0.20793
C          4.28791       -1.11700       -0.42495
H          4.80671       -2.03177       -0.72156
C          4.86634        0.11868       -0.69476
C          4.20514        1.28957       -0.34309
H          4.66052        2.25594       -0.57272
C          2.95925        1.25138        0.28937
C          2.40634       -2.55882        0.44593
H          1.48876       -2.39170        1.03028
C          2.24198        2.54198        0.62871
H          1.28418        2.27432        1.10062
N         -1.14761       -0.08003        1.25660
N          1.14775       -0.08052        1.25638
H          5.83765        0.16917       -1.19246
H         -5.83752        0.16902       -1.19220
C         -3.30507       -3.49052        1.25688
H         -2.78796       -4.43987        1.46654
H         -3.59606       -3.03961        2.21845
H         -4.23059       -3.73518        0.71249
C         -1.98100       -3.18697       -0.88074
H         -2.85583       -3.40818       -1.51250
H         -1.32574       -2.50253       -1.44236
H         -1.43865       -4.13037       -0.71044
C         -3.03171        3.38264        1.62993
H         -3.99704        3.70609        1.20950
H         -3.24526        2.81907        2.55149
H         -2.47025        4.28947        1.90439
C         -1.90996        3.32900       -0.63968
H         -1.32929        2.70886       -1.34016
H         -2.82461        3.65946       -1.15669
H         -1.32003        4.22631       -0.39621
C          1.90977        3.32812       -0.63905
H          1.31998        4.22557       -0.39579
H          2.82412        3.65821       -1.15685
H          1.32870        2.70754       -1.33882
C          3.03332        3.38293        1.62964
H          2.47228        4.29012        1.90374
H          3.24731        2.82002        2.55150
H          3.99846        3.70583        1.20835
C          3.30559       -3.49105        1.25527
H          4.23115       -3.73512        0.71067
H          3.59649       -3.04065        2.21710
H          2.78880       -4.44068        1.46440
C          1.98040       -3.18670       -0.88163
H          1.32481       -2.50203       -1.44260
H          2.85489       -3.40759       -1.51398
H          1.43817       -4.13019       -0.71144
Au        -0.00037        0.07021       -1.52224
H         -0.00071        0.16186       -3.13054
