78
6s_dime_dIdipp_auh.log	Energy: -888741.5561067
C          1.22911       -0.20158        2.49508
C          0.00008       -0.86139        3.11534
C         -1.22908       -0.20186        2.49507
C          0.00003       -0.05752        0.35037
H          2.13743       -0.76714        2.75306
H         -1.36030        0.81639        2.90558
C          0.00020       -2.36636        2.84855
H          0.89135       -2.83963        3.28791
H         -0.89058       -2.83983        3.28843
H         -0.00011       -2.59151        1.77385
C          0.00007       -0.60510        4.61953
H         -0.88869       -1.05145        5.09177
H          0.88888       -1.05135        5.09177
H          0.00001        0.47267        4.84547
N         -1.14560       -0.12818        1.04087
N          1.14565       -0.12796        1.04089
H         -2.13727       -0.76766        2.75300
H          1.36006        0.81672        2.90556
C         -2.39736        0.02900        0.35478
C         -3.06488       -1.10936       -0.13127
C         -2.94190        1.31940        0.22994
C         -4.31433       -0.93088       -0.73029
C         -4.19666        1.44661       -0.37183
C         -4.88222        0.33294       -0.84252
H         -4.84720       -1.79928       -1.12521
H         -4.63828        2.43961       -0.48570
C          2.39738        0.02964        0.35481
C          2.94122        1.32028        0.22942
C          3.06555       -1.10858       -0.13068
C          4.19588        1.44791       -0.37246
C          4.31485       -0.92968       -0.72987
C          4.88200        0.33442       -0.84274
H          4.63696        2.44109       -0.48677
H          4.84818       -1.79797       -1.12443
C         -2.19315        2.55950        0.67514
H         -1.22642        2.23478        1.08918
C         -2.44794       -2.49004       -0.06749
H         -1.49309       -2.39110        0.46467
C          2.44933       -2.48955       -0.06626
H          1.49499       -2.39106        0.46690
C          2.19192        2.56015        0.67434
H          1.22520        2.23512        1.08814
C          2.93943        3.31467        1.77291
H          3.90838        3.69314        1.41088
H          2.35363        4.18146        2.11706
H          3.14188        2.66997        2.64231
C          1.88020        3.45872       -0.52216
H          1.27147        4.32176       -0.21101
H          2.80214        3.84787       -0.98196
H          1.32622        2.90028       -1.29232
C          3.31659       -3.47032        0.72028
H          3.52311       -3.10160        1.73724
H          2.81518       -4.44710        0.80658
H          4.28646       -3.64017        0.22653
C          2.12398       -3.00535       -1.46782
H          1.48108       -2.28953       -2.00429
H          3.03841       -3.15221       -2.06427
H          1.59869       -3.97209       -1.41293
C         -2.12376       -3.00577       -1.46933
H         -3.03869       -3.15316       -2.06488
H         -1.48173       -2.28965       -2.00645
H         -1.59791       -3.97223       -1.41489
C         -3.31401       -3.47114        0.71997
H         -2.81212       -4.44772        0.80583
H         -3.51968       -3.10247        1.73711
H         -4.28430       -3.64138        0.22716
C         -1.88140        3.45815       -0.52129
H         -1.32704        2.89988       -1.29130
H         -2.80336        3.84696       -0.98135
H         -1.27304        4.32141       -0.21001
C         -2.94115        3.31378        1.77352
H         -3.91013        3.69198        1.41126
H         -3.14361        2.66902        2.64288
H         -2.35570        4.18075        2.11780
H          5.86035        0.45444       -1.31403
H         -5.86067        0.45264       -1.31367
Au        -0.00000        0.19699       -1.72321
H         -0.00004        0.41620       -3.31960
