66
6s_dinbu_dIphme_auh.log	Energy: -789993.5352005
C          1.27721        2.01652       -0.05868
C          0.08628        2.64098        0.66316
C         -1.17579        2.08081        0.02049
C         -0.02661       -0.09251       -0.27039
H          2.19820        2.19367        0.51774
H         -1.32277        2.51153       -0.98411
N         -1.14536        0.62819       -0.10792
N          1.13995        0.57103       -0.24169
H         -2.05842        2.35743        0.61531
H          1.41670        2.49773       -1.04085
C         -2.41987       -0.01016       -0.20480
C         -3.26217       -0.04950        0.90468
C         -2.84027       -0.57187       -1.41054
C         -4.51021       -0.65882        0.80957
C         -4.08672       -1.18225       -1.49339
C         -4.94240       -1.24149       -0.38674
H         -5.15799       -0.69346        1.68951
H         -4.39923       -1.62957       -2.44056
C          2.37065       -0.14207       -0.36564
C          3.28345        0.21929       -1.35509
C          2.69346       -1.17036        0.52312
C          4.49945       -0.45150       -1.46285
C          3.90687       -1.83743        0.40078
C          4.83139       -1.49524       -0.59369
H          5.20088       -0.16322       -2.25031
H          4.13869       -2.64773        1.09701
C         -6.26774       -1.93937       -0.47715
H         -6.94687       -1.62530        0.32804
H         -6.76202       -1.74266       -1.44011
H         -6.13900       -3.03136       -0.39513
C          6.12270       -2.24675       -0.73344
H          6.59007       -2.42933        0.24593
H          5.95364       -3.23120       -1.20010
H          6.84261       -1.70191       -1.36026
C          0.13317        4.17353        0.48843
H         -0.59535        4.61658        1.18972
H          1.12239        4.50974        0.84755
C          0.13243        2.37850        2.18481
H          0.91607        3.03744        2.60080
H         -0.81684        2.75227        2.60980
C         -0.10998        4.75867       -0.89735
H         -1.15831        4.60086       -1.20288
H          0.50514        4.23987       -1.65419
C          0.38714        0.97047        2.70695
H          1.36364        0.60758        2.34700
H         -0.36064        0.26251        2.31649
C          0.19336        6.25087       -0.96006
H         -0.40210        6.77259       -0.19005
H          1.24917        6.41669       -0.68188
C         -0.08120        6.86360       -2.32340
H          0.15077        7.93902       -2.33865
H          0.52463        6.38177       -3.10763
H         -1.13915        6.74765       -2.60853
C          0.37691        0.90552        4.22849
H          1.11857        1.61870        4.63096
H         -0.60317        1.25339        4.60178
C          0.66309       -0.48984        4.75941
H         -0.07764       -1.21656        4.38924
H          1.65539       -0.84242        4.43502
H          0.64218       -0.52063        5.85915
H          3.03710        1.01737       -2.05858
H          1.98269       -1.45238        1.30132
H         -2.93068        0.38309        1.85184
H         -2.17608       -0.53980       -2.27611
Au        -0.13544       -2.17658       -0.52236
H         -0.23181       -3.77251       -0.71044
