54
6s_diet_dIphme_auh.log	Energy: -691263.8891709
C          1.27156        2.43745       -0.35365
C          0.07932        3.18491        0.23610
C         -1.18487        2.48596       -0.24713
C          0.00735        0.31217       -0.12318
H          2.19808        2.75800        0.14650
H         -1.37993        2.72392       -1.30616
N         -1.12234        1.03400       -0.11428
N          1.16563        0.98601       -0.20659
H         -2.05490        2.84705        0.32118
H          1.38047        2.68708       -1.42189
C         -2.38663        0.36722       -0.12815
C         -3.25506        0.50015        0.95333
C         -2.77119       -0.39374       -1.23235
C         -4.49318       -0.13595        0.93378
C         -4.00806       -1.02857       -1.23986
C         -4.88960       -0.91593       -0.15795
H         -5.16148       -0.03391        1.79287
H         -4.29212       -1.63238       -2.10566
C          2.40729        0.28375       -0.16670
C          3.34817        0.47887       -1.17683
C          2.71248       -0.56722        0.89846
C          4.57298       -0.18276       -1.12888
C          3.93498       -1.22790        0.93101
C          4.88720       -1.05286       -0.08059
H          5.29611       -0.02670       -1.93382
H          4.15242       -1.89870        1.76634
C         -6.20414       -1.63957       -0.15966
H         -6.90760       -1.20376        0.56380
H         -6.67521       -1.61740       -1.15357
H         -6.06509       -2.69948        0.11051
C          6.18947       -1.79762       -0.04703
H          6.63338       -1.78657        0.95989
H          6.04301       -2.85447       -0.32460
H          6.91955       -1.36862       -0.74771
C          0.09456        4.64684       -0.26321
H         -0.67713        5.19819        0.30087
H          1.05623        5.08492        0.05518
C          0.15070        3.25987        1.77769
H          0.96732        3.96111        2.02410
H         -0.77420        3.75886        2.11662
C         -0.10228        4.90789       -1.74971
H         -1.11184        4.64270       -2.09691
H          0.03596        5.97820       -1.96264
H          0.61991        4.36261       -2.37672
C          0.35641        1.98784        2.58758
H          1.32117        1.50963        2.36728
H          0.35526        2.23319        3.66025
H         -0.43115        1.24023        2.41925
H          3.11849        1.13688       -2.01738
H          1.98147       -0.71733        1.69429
H         -2.95230        1.08931        1.82230
H         -2.08633       -0.49644       -2.07607
Au        -0.07551       -1.78594       -0.01010
H         -0.15195       -3.39192        0.06760
