70
6s_dime_dIad_auh.log	Energy: -791523.3203605
C         -1.21185        2.61993        0.11523
C         -0.00103        3.14069       -0.63768
C          1.21056        2.62074        0.11458
C         -0.00010        0.48862        0.17173
H         -2.11576        2.87432       -0.45605
H          1.29276        3.12622        1.09265
C         -0.00124        2.64111       -2.08419
H         -0.89111        3.00880       -2.61804
H          0.88786        3.00980       -2.61862
H         -0.00064        1.54283       -2.14876
C         -0.00154        4.66537       -0.60938
H          0.88682        5.06712       -1.12100
H         -0.89027        5.06652       -1.12084
H         -0.00158        5.05035        0.42258
N          1.15493        1.17277        0.27160
N         -1.15564        1.17189        0.27139
H          2.11390        2.87511       -0.45761
H         -1.29339        3.12483        1.09366
C         -2.47277        0.48253        0.42119
C         -2.34444       -0.79089        1.27214
C         -3.46659        1.39796        1.16960
C         -3.06119        0.13884       -0.95370
H         -1.93388       -0.52041        2.25982
H         -1.62844       -1.48828        0.81039
C         -3.69690       -1.49145        1.41188
H         -3.62757        2.34124        0.62921
H         -3.05506        1.65428        2.16055
C         -4.82886        0.71081        1.32053
H         -2.34973       -0.51568       -1.48653
H         -3.16917        1.06179       -1.55064
C         -4.41579       -0.55437       -0.79423
H         -3.55119       -2.41687        1.99243
C         -4.68150       -0.57364        2.13289
C         -4.23187       -1.83876        0.01922
H         -5.51075        1.40586        1.83785
C         -5.38568        0.38009       -0.06703
H         -4.81253       -0.80125       -1.79254
H         -4.31518       -0.34364        3.14769
H         -5.66136       -1.06726        2.24687
H         -3.52845       -2.51282       -0.49663
H         -5.19278       -2.37341        0.10583
H         -6.37615       -0.09551        0.02886
H         -5.53017        1.30604       -0.64990
C          2.47217        0.48368        0.42153
C          3.05880        0.13660       -0.95320
C          3.46720        1.40045        1.16663
C          2.34427       -0.78771        1.27567
H          3.16636        1.05813       -1.55241
H          2.34626       -0.51892       -1.48350
C          4.41325       -0.55689       -0.79378
H          3.05703        1.65929        2.15749
H          3.62798        2.34236        0.62383
C          4.82934        0.71299        1.31757
H          1.62724       -1.48572        0.81650
H          1.93517       -0.51461        2.26324
C          3.69653       -1.48861        1.41534
H          4.80868       -0.80626       -1.79198
C          5.38443        0.37878       -0.06986
C          4.22965       -1.83933        0.02283
H          5.51214        1.40891        1.83250
C          4.68238       -0.56953        2.13305
H          3.55116       -2.41263        1.99820
H          5.52869        1.30331       -0.65504
H          6.37479       -0.09706        0.02603
H          3.52524       -2.51417       -0.49067
H          5.19037       -2.37429        0.10949
H          5.66216       -1.06329        2.24700
H          4.31736       -0.33706        3.14776
Au         0.00130       -1.40752       -0.83796
H          0.00237       -2.69426       -1.79290
