42
6s_dih_dIphme_auh.log	Energy: -592535.4064327
C         -0.01707        0.86528        0.00467
C          1.20167        3.03511        0.01082
H          2.06092        3.34011       -0.60350
H          1.41063        3.37643        1.04081
C         -0.08211        3.63836       -0.50925
H         -0.17104        3.45633       -1.59239
H         -0.08230        4.72662       -0.35287
C         -1.25204        3.00041        0.20637
H         -1.25505        3.29023        1.27235
H         -2.20903        3.32696       -0.22320
C          2.37644        0.89019        0.03909
C          2.75833        0.20579        1.19281
C          3.98346       -0.45004        1.23598
H          4.26602       -0.99379        2.14115
C          4.85458       -0.43470        0.14005
C          4.45973        0.26798       -1.00367
H          5.11928        0.29086       -1.87518
C          3.23332        0.92395       -1.05885
C          6.15528       -1.18170        0.18184
H          6.86537       -0.80117       -0.56596
H          5.99543       -2.25228       -0.02815
H          6.62854       -1.11232        1.17242
C         -2.41845        0.84812        0.05139
C         -2.74650        0.02298       -1.02607
C         -3.96769       -0.64027       -1.04415
H         -4.20549       -1.29183       -1.88908
C         -4.89447       -0.49123       -0.00469
C         -4.55733        0.35548        1.05560
H         -5.26129        0.49069        1.88102
C         -3.33247        1.01815        1.08956
C         -6.19494       -1.23972       -0.02275
H         -6.66117       -1.21247       -1.01918
H         -6.91052       -0.82595        0.70162
H         -6.03868       -2.30072        0.23279
N          1.12274        1.57668       -0.00868
N         -1.17430        1.54672        0.07797
H         -2.03432       -0.09988       -1.84362
H         -3.08026        1.65640        1.93918
H          2.07981        0.17781        2.04743
H          2.92769        1.44716       -1.96810
Au         0.04376       -1.23437       -0.05193
H          0.10093       -2.84260       -0.08243
