54
6s_dih_dImes_auh.log	Energy: -691280.9117834
C          0.00000        0.75216        0.13642
C          1.23494        2.86392        0.52080
H          2.14610        3.23966        0.03271
H          1.35431        3.04950        1.60383
C          0.00000        3.55923       -0.01036
H          0.00000        3.51650       -1.11171
H          0.00000        4.61906        0.28191
C         -1.23494        2.86392        0.52080
H         -1.35431        3.04951        1.60383
H         -2.14610        3.23966        0.03271
C          2.39184        0.72195        0.17731
C          2.93123        0.12919        1.32645
C          4.16657       -0.51187        1.21618
H          4.59658       -0.98203        2.10530
C          4.85836       -0.57782        0.00463
C          4.28257        0.01695       -1.12131
H          4.80237       -0.03746       -2.08223
C          3.05042        0.66819       -1.05912
C          2.16946        0.12467        2.61740
H          1.79055        1.12284        2.88390
H          2.79427       -0.23733        3.44470
H          1.29421       -0.54108        2.53207
C          6.16514       -1.30936       -0.09656
H          5.99903       -2.36565       -0.36625
H          6.71034       -1.29735        0.85820
H          6.81424       -0.87305       -0.86957
C          2.40954        1.24248       -2.28660
H          1.46713        0.71274       -2.50350
H          3.06799        1.14242       -3.15962
H          2.16202        2.30971       -2.16988
C         -2.39184        0.72195        0.17731
C         -3.05041        0.66819       -1.05912
C         -4.28257        0.01695       -1.12131
H         -4.80236       -0.03746       -2.08223
C         -4.85836       -0.57782        0.00463
C         -4.16657       -0.51186        1.21618
H         -4.59658       -0.98203        2.10530
C         -2.93123        0.12920        1.32645
C         -2.40954        1.24248       -2.28660
H         -2.16201        2.30971       -2.16988
H         -3.06798        1.14242       -3.15962
H         -1.46713        0.71274       -2.50350
C         -6.16514       -1.30936       -0.09656
H         -6.81414       -0.87321       -0.86973
H         -6.71044       -1.29716        0.85814
H         -5.99901       -2.36571       -0.36601
C         -2.16946        0.12468        2.61740
H         -1.29420       -0.54106        2.53206
H         -2.79427       -0.23734        3.44469
H         -1.79057        1.12285        2.88391
N          1.14864        1.42956        0.26913
N         -1.14864        1.42956        0.26913
Au        -0.00000       -1.29188       -0.29446
H         -0.00000       -2.86478       -0.64112
