52
6s_diet_dIterbutyl_auh.log	Energy: -549236.6856005
C         -2.12975        1.28032       -0.05133
C         -2.70780        0.02599        0.58361
C         -2.19022       -1.16178       -0.21009
C         -0.04303        0.00256       -0.40132
H         -2.24268        2.11494        0.65981
H         -2.69656       -1.20561       -1.18739
N         -0.74735       -1.14048       -0.40949
N         -0.71821        1.16768       -0.40311
H         -2.45962       -2.07889        0.33077
H         -2.71769        1.54409       -0.94363
C         -4.25046        0.08265        0.48911
H         -4.65441       -0.72579        1.12218
H         -4.56679        1.01993        0.97890
C         -2.39000       -0.07690        2.09285
H         -2.99609        0.70090        2.59077
H         -2.80704       -1.03771        2.44336
C         -4.89777       -0.00243       -0.88589
H         -4.78594       -0.99581       -1.34514
H         -5.97771        0.19116       -0.80503
H         -4.49233        0.73833       -1.59279
C         -0.95702        0.05116        2.58421
H         -0.50151        1.00896        2.30023
H         -0.93899       -0.00495        3.68305
H         -0.30067       -0.74180        2.20461
C         -0.09957       -2.47438       -0.65727
C         -0.03106        2.47602       -0.67188
C          0.53560        3.04801        0.62698
H          1.28456        2.36064        1.05193
H          1.02151        4.01711        0.43904
H         -0.25974        3.21032        1.37160
C         -1.03880        3.47080       -1.26806
H         -1.50354        3.07508       -2.18375
H         -1.83135        3.76884       -0.56905
H         -0.49383        4.38448       -1.54181
C          1.02061       -2.35431       -1.69266
H          1.39011       -3.36064       -1.93765
H          0.64561       -1.88522       -2.61477
H          1.87328       -1.76243       -1.32857
C          0.42183       -3.04454        0.66045
H         -0.39313       -3.14773        1.39439
H          0.86433       -4.03954        0.50199
H          1.19606       -2.38363        1.08205
C         -1.12231       -3.44898       -1.26226
H         -0.58905       -4.36746       -1.54269
H         -1.91843       -3.74492       -0.56657
H         -1.58245       -3.04257       -2.17501
C          1.06614        2.31110       -1.72499
H          1.45155        3.30442       -1.99735
H          1.91276        1.70855       -1.36440
H          0.66422        1.83156       -2.63016
Au         2.00124       -0.02175        0.24876
H          3.44787       -0.03873        0.93861
