78
6s_dinbu_dImes_auh.log	Energy: -888734.8959471
C          1.40992        1.86150        0.46503
C          0.15677        2.63689        0.88658
C         -1.03505        2.10483        0.09182
C         -0.01579       -0.13165       -0.00976
H          2.17268        1.92411        1.25796
H         -0.99645        2.48221       -0.94360
N         -1.10287        0.64955        0.04021
N          1.17963        0.44717        0.17567
H         -1.97434        2.47785        0.52657
H          1.85585        2.32934       -0.42652
C         -2.37621        0.10713       -0.34919
C         -3.32760       -0.20783        0.63147
C         -2.66342       -0.04639       -1.71593
C         -4.57667       -0.67593        0.21924
C         -3.92554       -0.51844       -2.07895
C         -4.89719       -0.83966       -1.12923
H         -5.31913       -0.92925        0.98146
H         -4.15154       -0.64615       -3.14153
C          2.36373       -0.31067       -0.13160
C          2.92457       -0.17250       -1.41262
C          2.94857       -1.15698        0.82598
C          4.09179       -0.87934       -1.71129
C          4.11034       -1.84610        0.47531
C          4.70274       -1.72083       -0.78273
H          4.52465       -0.77962       -2.71098
H          4.55999       -2.51657        1.21337
C         -1.62869        0.22040       -2.76744
H         -1.13291        1.19376       -2.63488
H         -0.84584       -0.55604       -2.72713
H         -2.07511        0.20302       -3.77045
C         -3.00443       -0.09719        2.08954
H         -2.20103       -0.80188        2.35733
H         -2.65735        0.91024        2.36382
H         -3.88288       -0.33277        2.70472
C         -6.23158       -1.38516       -1.54645
H         -7.00780       -1.17284       -0.79732
H         -6.55707       -0.96450       -2.50904
H         -6.18272       -2.48008       -1.66812
C          2.35370       -1.35298        2.18706
H          2.56684       -0.49755        2.84710
H          1.26264       -1.47582        2.13218
H          2.77312       -2.24925        2.66281
C          2.29447        0.69227       -2.46588
H          1.19924        0.68942       -2.39092
H          2.63335        1.73988       -2.39469
H          2.56440        0.33549       -3.46917
C          5.92965       -2.50935       -1.13639
H          6.63031       -2.56566       -0.29015
H          5.66264       -3.54434       -1.40706
H          6.45999       -2.07030       -1.99329
C          0.36733        4.13115        0.55810
H         -0.42182        4.70869        1.07058
H          1.31184        4.43548        1.04401
C         -0.09345        2.55981        2.40877
H          0.56089        3.30653        2.89332
H         -1.12322        2.91471        2.59387
C          0.41018        4.55254       -0.90604
H         -0.59593        4.48762       -1.35400
H          1.04352        3.86165       -1.49153
C          0.12036        1.22993        3.11189
H          1.19172        0.98104        3.09869
H         -0.38140        0.41673        2.57020
C          0.93226        5.97198       -1.09211
H          0.31942        6.66438       -0.48824
H          1.95297        6.03822       -0.67575
C          0.93883        6.42394       -2.54302
H          1.32588        7.44860       -2.64716
H          1.56863        5.76606       -3.16342
H         -0.07583        6.40663       -2.97219
C         -0.36200        1.23633        4.55530
H          0.12924        2.05986        5.10406
H         -1.44187        1.46922        4.57513
C         -0.11152       -0.08273        5.26824
H         -0.61644       -0.91518        4.75232
H          0.96325       -0.32320        5.29891
H         -0.47779       -0.06195        6.30561
Au        -0.20412       -2.19032       -0.31953
H         -0.36269       -3.77976       -0.52971
