40
6s_dih_dIterbutyl_auh.log	Energy: -450509.2713623
C         -1.22273        2.62546       -0.50463
C          1.22271        2.62545       -0.50469
C         -0.00001        0.60045        0.16312
H         -2.12298        2.69338       -1.13129
H          1.31960        3.39079        0.28502
N          1.15713        1.28404        0.06509
N         -1.15715        1.28402        0.06510
H          2.12293        2.69333       -1.13140
H         -1.31956        3.39078        0.28510
C         -0.00003        2.88797       -1.34343
H         -0.00003        3.92487       -1.70874
H         -0.00005        2.22066       -2.22081
C         -2.47872        0.67081        0.41977
C         -3.06785       -0.02517       -0.80632
H         -2.40921       -0.84813       -1.12678
H         -4.06027       -0.44066       -0.57560
H         -3.18300        0.67876       -1.64603
C         -3.43049        1.77722        0.90002
H         -4.35446        1.30476        1.26044
H         -2.99606        2.34250        1.73835
H         -3.72123        2.48378        0.11136
C          2.47870        0.67084        0.41977
C          2.33956       -0.30211        1.59117
H          3.34287       -0.62323        1.90669
H          1.84373        0.18539        2.44392
H          1.76444       -1.20224        1.32878
C          3.06785       -0.02511       -0.80631
H          3.18299        0.67882       -1.64602
H          4.06028       -0.44059       -0.57559
H          2.40923       -0.84808       -1.12678
C         -2.33957       -0.30214        1.59117
H         -1.84378        0.18538        2.44393
H         -3.34288       -0.62330        1.90667
H         -1.76441       -1.20225        1.32879
C          3.43044        1.77727        0.90005
H          4.35442        1.30483        1.26046
H          3.72116        2.48385        0.11140
H          2.99599        2.34253        1.73838
Au         0.00002       -1.50531       -0.22203
H          0.00004       -3.01826       -0.74968
