48
6s_dime_dIphme_auh.log	Energy: -641904.0342364
C          1.25261        2.65267       -0.54107
C          0.09447        3.38916        0.12367
C         -1.17644        2.72007       -0.38190
C          0.01120        0.54918       -0.16285
H          2.21437        3.01145       -0.14682
H         -1.34245        2.96016       -1.44779
C          0.19055        3.27457        1.64550
H          1.12544        3.72597        2.01115
H         -0.64878        3.80028        2.12618
H          0.16919        2.22678        1.97887
C          0.10681        4.85251       -0.30315
H         -0.74707        5.39436        0.13206
H          1.02753        5.35136        0.03660
H          0.04972        4.95426       -1.39829
N         -1.11963        1.27120       -0.21257
N          1.17079        1.21683       -0.28840
H         -2.05217        3.09546        0.16794
H          1.24803        2.85222       -1.62759
C         -2.38203        0.60079       -0.17804
C         -3.22964        0.76890        0.91477
C         -2.78121       -0.20362       -1.24506
C         -4.46449        0.12715        0.94173
C         -4.01471       -0.84408       -1.20599
C         -4.87692       -0.69442       -0.11316
H         -5.11697        0.25672        1.80923
H         -4.31120       -1.48202       -2.04265
C          2.41257        0.52103       -0.18625
C          3.33445        0.58899       -1.22897
C          2.73085       -0.19659        0.96818
C          4.55775       -0.06876       -1.12193
C          3.95052       -0.85656        1.05969
C          4.88531       -0.80954        0.01775
H          5.26833       -0.01446       -1.95096
H          4.18082       -1.42369        1.96541
C         -6.18718       -1.42406       -0.06274
H         -6.88471       -0.95596        0.64618
H         -6.66986       -1.45488       -1.05076
H         -6.03861       -2.46807        0.25939
C          6.18416       -1.55439        0.11771
H          6.63904       -1.43855        1.11299
H          6.02892       -2.63388       -0.04384
H          6.90869       -1.20769       -0.63253
H          3.08940        1.14357       -2.13741
H          2.01258       -0.23864        1.78857
H         -2.90986        1.38802        1.75646
H         -2.11016       -0.33574       -2.09577
Au        -0.06268       -1.53355        0.09690
H         -0.12860       -3.13065        0.28749
