84
6s_diet_dIdipp_auh.log	Energy: -938099.4624423
C          1.29343        0.01307        2.31562
C          0.00011        0.01566        3.15732
C         -1.29328        0.01316        2.31568
C          0.00000        0.00008        0.18151
H          1.91043       -0.85989        2.58255
H         -1.90693        0.89170        2.57181
N         -1.14386        0.00388        0.86799
N          1.14389        0.00392        0.86794
H         -1.91039       -0.85969        2.58274
H          1.90723        0.89151        2.57176
C         -2.39009        0.00101        0.15639
C         -2.99381       -1.22989       -0.15484
C         -2.99297        1.22954       -0.16567
C         -4.23966       -1.20685       -0.78676
C         -4.23885        1.20183       -0.79731
C         -4.86214       -0.00365       -1.09936
H         -4.72513       -2.14986       -1.04969
H         -4.72369        2.14283       -1.06852
C          2.39014        0.00107        0.15637
C          2.99297        1.22962       -0.16570
C          2.99397       -1.22983       -0.15467
C          4.23894        1.20193       -0.79719
C          4.23990       -1.20676       -0.78644
C          4.86234       -0.00354       -1.09905
H          4.72375        2.14293       -1.06841
H          4.72546       -2.14975       -1.04925
C         -2.30660        2.55321        0.10045
H         -1.35748        2.33362        0.61156
C         -2.30846       -2.55161        0.12318
H         -1.35923       -2.32799        0.63230
C          2.30854       -2.55152        0.12323
H          1.35958       -2.32794        0.63287
C          2.30639        2.55322        0.10014
H          1.35740        2.33360        0.61146
C          0.00017        1.25908        4.07380
H         -0.87882        1.18794        4.73773
H          0.87917        1.18788        4.73771
C          0.00009       -1.22172        4.08186
H          0.87915       -1.14636        4.74523
H         -0.87887       -1.14626        4.74534
C          0.00021        2.61189        3.38259
H         -0.88669        2.75576        2.74801
H          0.00015        3.42290        4.12543
H          0.88719        2.75577        2.74813
C         -0.00002       -2.57875        3.39912
H          0.88685       -2.72639        2.76539
H          0.00002       -3.38523        4.14687
H         -0.88702       -2.72631        2.76556
C         -1.95215       -3.26039       -1.18346
H         -2.85663       -3.54209       -1.74543
H         -1.34438       -2.60465       -1.82648
H         -1.38014       -4.17988       -0.98266
C         -3.13525       -3.44369        1.04751
H         -3.37879       -2.93459        1.99329
H         -4.08708       -3.73850        0.57829
H         -2.58611       -4.36747        1.28819
C         -1.94978        3.24974       -1.21262
H         -1.34239        2.58770       -1.84949
H         -2.85407        3.52674       -1.77722
H         -1.37725        4.17070       -1.02029
C         -3.13274        3.45430        1.01658
H         -4.08432        3.74554        0.54463
H         -3.37676        2.95399        1.96692
H         -2.58292        4.37983        1.24889
C          3.13245        3.45479        1.01587
H          4.08389        3.74614        0.54370
H          2.58243        4.38024        1.24798
H          3.37671        2.95481        1.96632
C          1.94923        3.24919       -1.21314
H          1.37650        4.17008       -1.02109
H          2.85339        3.52619       -1.77796
H          1.34193        2.58674       -1.84968
C          1.95153       -3.25974       -1.18353
H          2.85573       -3.54115       -1.74609
H          1.37964       -4.17932       -0.98283
H          1.34343       -2.60371       -1.82597
C          3.13554       -3.44409        1.04689
H          3.37963       -2.93533        1.99272
H          2.58627       -4.36780        1.28754
H          4.08707       -3.73902        0.57715
H          5.83582       -0.00536       -1.59508
H         -5.83556       -0.00550       -1.59551
Au         0.00001       -0.01092       -1.91217
H          0.00005       -0.01904       -3.52292
