64
6s_dinbu_dIterbutyl_auh.log	Energy: -647966.7600057
C          1.72917       -1.23149        0.05676
C          2.16181        0.02911        0.78744
C          1.78749        1.20354       -0.10135
C         -0.28012        0.02643       -0.65324
H          1.70746       -2.06673        0.77646
H          2.43799        1.22010       -0.99080
N          0.39269        1.18006       -0.51845
N          0.41095       -1.12707       -0.56203
H          1.97986        2.12966        0.45442
H          2.48203       -1.48862       -0.70374
C          3.69306       -0.00615        0.98680
H          3.95939        0.78364        1.71085
H          3.93075       -0.95734        1.49631
C          1.55655        0.13558        2.20570
H          2.11585       -0.57516        2.84162
H          1.81266        1.13699        2.59742
C          4.59427        0.13332       -0.23392
H          4.52615        1.15430       -0.64690
H          4.26210       -0.54090       -1.04378
C          0.07311       -0.11801        2.42772
H         -0.19967       -1.11933        2.06000
H         -0.54063        0.58364        1.84501
C          6.05479       -0.16491        0.08290
H          6.38577        0.48899        0.90908
H          6.13672       -1.19605        0.46978
C          6.97801        0.01043       -1.11148
H          8.02324       -0.21664       -0.85341
H          6.68861       -0.65433       -1.94134
H          6.94696        1.04370       -1.49298
C         -0.32774       -0.00920        3.89220
H          0.28316       -0.70547        4.49543
H         -0.07918        1.00178        4.26299
C         -1.80513       -0.29033        4.11511
H         -2.43385        0.39621        3.52658
H         -2.06692       -1.31211        3.79743
H         -2.08562       -0.18572        5.17415
C         -0.19129       -2.43792       -0.97839
C         -0.96625       -3.05749        0.18423
H         -1.78944       -2.39297        0.49203
H         -1.39479       -4.02567       -0.11504
H         -0.31129       -3.23484        1.05181
C         -1.08980       -2.26079       -2.20350
H         -1.40049       -3.25197       -2.56467
H         -1.99879       -1.68255       -1.98181
H         -0.54564       -1.74874       -3.01130
C          0.92801       -3.39700       -1.41127
H          0.46194       -4.31263       -1.80014
H          1.53813       -2.96570       -2.21933
H          1.59094       -3.69928       -0.58978
C         -0.23386        2.51129       -0.82584
C         -1.16024        2.40963       -2.03938
H         -1.51721        3.41581       -2.30269
H         -0.62030        1.99272       -2.90290
H         -2.04124        1.77942       -1.84825
C         -0.98175        3.02209        0.40449
H         -0.30525        3.09897        1.27047
H         -1.40459        4.01976        0.21230
H         -1.80716        2.33893        0.66125
C          0.85254        3.52639       -1.21415
H          0.35233        4.43926       -1.56507
H          1.50075        3.82249       -0.37877
H          1.48175        3.15720       -2.03736
Au        -2.40478       -0.00278       -0.35271
H         -3.94586       -0.02947        0.08737
