96
6s_dinbu_dIdipp_auh.log	Energy: -1036830.4560297
C          0.00012        1.29403        1.96518
C         -0.00036       -0.00001        2.80645
C         -0.00074       -1.29405        1.96517
C          0.00006        0.00000       -0.16868
H          0.87571        1.90912        2.22699
H         -0.87650       -1.90902        2.22666
N         -0.00053       -1.14394        0.51775
N          0.00044        1.14394        0.51776
H          0.87455       -1.90963        2.22684
H         -0.87534        1.90950        2.22655
C         -0.00094       -2.39022       -0.19336
C          1.22871       -2.99432       -0.50900
C         -1.23101       -2.99338       -0.50920
C          1.20283       -4.24085       -1.13946
C         -1.20599       -4.23993       -1.13966
C         -0.00179       -4.86355       -1.44624
H          2.14465       -4.72672       -1.40598
H         -2.14813       -4.72507       -1.40635
C          0.00096        2.39023       -0.19333
C         -1.22865        2.99425       -0.50926
C          1.23107        2.99346       -0.50887
C         -1.20270        4.24080       -1.13971
C          1.20612        4.24001       -1.13933
C          0.00197        4.86357       -1.44619
H         -2.14447        4.72661       -1.40645
H          2.14830        4.72521       -1.40578
C         -2.55350       -2.30651       -0.23786
H         -2.33169       -1.35685        0.27118
C          2.55169       -2.30850       -0.23741
H          2.33052       -1.35855        0.27137
C          2.55353        2.30668       -0.23720
H          2.33164        1.35698        0.27174
C         -2.55166        2.30835       -0.23802
H         -2.33056        1.35842        0.27084
C         -1.24323        0.00043        3.72147
H         -1.17875       -0.87920        4.38653
H         -1.17823        0.88015        4.38636
C          1.24236       -0.00047        3.72166
H          1.17779        0.87914        4.38673
H          1.17726       -0.88021        4.38651
C         -2.59544        0.00076        3.02608
H         -2.68284       -0.87770        2.36527
H         -2.68210        0.87885        2.36468
C          2.59467       -0.00079        3.02647
H          2.68217        0.87770        2.36572
H          2.68141       -0.87884        2.36503
C         -3.77146        0.00158        3.99367
H         -3.69746       -0.87835        4.65688
H         -3.69678        0.88196        4.65622
C         -5.11836        0.00184        3.28931
H         -5.95309        0.00244        4.00599
H         -5.23095        0.88912        2.64584
H         -5.23164       -0.88586        2.64653
C          3.77055       -0.00167        3.99423
H          3.69646        0.87823        4.65747
H          3.69577       -0.88209        4.65670
C          5.11756       -0.00189        3.29005
H          5.23023       -0.88914        2.64655
H          5.23094        0.88584        2.64734
H          5.95218       -0.00255        4.00685
C          3.25534       -1.95375       -1.54718
H          3.53566       -2.85868       -2.10913
H          2.59689       -1.34707       -2.18845
H          4.17510       -1.38081       -1.35021
C          3.44792       -3.13320        0.68457
H          2.94586       -3.36928        1.63597
H          3.73697       -4.08833        0.21858
H          4.37499       -2.58497        0.91483
C         -3.25645       -1.95094       -1.54778
H         -2.59728       -1.34472       -2.18875
H         -3.53736       -2.85554       -2.10997
H         -4.17579       -1.37724       -1.35099
C         -3.45070       -3.13063        0.68370
H         -3.74045       -4.08542        0.21743
H         -2.94911       -3.36734        1.63519
H         -4.37736       -2.58166        0.91380
C         -3.25494        1.95354       -1.54797
H         -4.17471        1.38052       -1.35124
H         -3.53518        2.85846       -2.11000
H         -2.59627        1.34692       -2.18907
C         -3.44819        3.13300        0.68371
H         -4.37529        2.58471        0.91373
H         -2.94641        3.36913        1.63525
H         -3.73719        4.08810        0.21763
C          3.25687        1.95119       -1.54693
H          2.59793        1.34493       -2.18809
H          3.53786        2.85583       -2.10903
H          4.17620        1.37758       -1.34990
C          3.45041        3.13083        0.68465
H          2.94854        3.36746        1.63601
H          4.37705        2.58191        0.91499
H          3.74022        4.08565        0.21849
H          0.00236        5.83751       -1.94133
H         -0.00212       -5.83749       -1.94139
Au         0.00036        0.00001       -2.26194
H          0.00058        0.00002       -3.87285
