66
6s_diet_dImes_auh.log	Energy: -790004.4815823
C         -1.23481        2.45063        0.03767
C          0.07288        3.20036       -0.23790
C          1.24075        2.37364        0.29896
C         -0.00180        0.28624       -0.10842
H         -2.01513        2.79266       -0.66166
H          1.30283        2.47571        1.39518
N          1.15656        0.95266       -0.01613
N         -1.13871        0.99657       -0.07488
H          2.18967        2.75892       -0.10352
H         -1.60070        2.69509        1.04697
C          2.37679        0.21493        0.17176
C          3.27559        0.07153       -0.89467
C          2.67181       -0.30253        1.44443
C          4.47995       -0.59590       -0.66390
C          3.88804       -0.96226        1.62625
C          4.80694       -1.12090        0.58721
H          5.18018       -0.71607       -1.49554
H          4.11909       -1.37251        2.61355
C         -2.38264        0.29104        0.08849
C         -2.89175        0.13426        1.38874
C         -3.07350       -0.21985       -1.02384
C         -4.11286       -0.52388        1.55404
C         -4.28574       -0.87506       -0.80424
C         -4.82775       -1.03577        0.47242
H         -4.50572       -0.65455        2.56661
H         -4.81815       -1.28661       -1.66657
C          1.68729       -0.21702        2.57167
H          1.28552        0.79864        2.70583
H          0.83239       -0.88553        2.37293
H          2.14836       -0.52507        3.51937
C          2.93839        0.57205       -2.26503
H          2.05690        0.04119       -2.65862
H          2.70117        1.64668       -2.26996
H          3.77299        0.40629       -2.95900
C          6.08894       -1.87141        0.80022
H          6.86942       -1.54707        0.09705
H          6.46976       -1.73858        1.82336
H          5.93620       -2.95260        0.64616
C         -2.53933       -0.10012       -2.41854
H         -2.70399        0.90950       -2.82729
H         -1.46121       -0.31136       -2.45308
H         -3.04629       -0.81079       -3.08447
C         -2.15534        0.63475        2.59762
H         -1.06765        0.59563        2.45656
H         -2.42705        1.67614        2.84067
H         -2.40218        0.02563        3.47798
C         -6.11433       -1.78191        0.67252
H         -6.84499       -1.54344       -0.11461
H         -5.94250       -2.87046        0.63772
H         -6.56959       -1.55021        1.64581
C          0.02901        4.56038        0.49686
H          0.86716        5.17248        0.12171
H         -0.88456        5.07665        0.15449
C          0.24655        3.53327       -1.73689
H         -0.37839        4.41860       -1.94832
H          1.28753        3.87223       -1.87859
C          0.06033        4.55864        2.01874
H          1.04135        4.26730        2.42191
H         -0.15341        5.56768        2.40100
H         -0.69240        3.88401        2.45649
C         -0.09327        2.46557       -2.76071
H         -1.16730        2.24371       -2.76553
H          0.16857        2.81409       -3.77102
H          0.43764        1.52284       -2.58556
Au        -0.01269       -1.79234       -0.33501
H         -0.00923       -3.39073       -0.53560
