46
6s_dime_dIrterbutyl_auh.log	Energy: -499878.1646827
C         -2.38342       -1.20979        0.17126
C         -2.83332        0.00004       -0.62854
C         -2.38338        1.20986        0.17123
C         -0.26387        0.00000        0.42912
H         -2.58533       -2.11789       -0.41511
H         -2.97581        1.28630        1.09985
C         -2.20299        0.00002       -2.02280
H         -2.52087       -0.88919       -2.58876
H         -2.52084        0.88922       -2.58878
H         -1.10342       -0.00000       -1.98622
C         -4.35420        0.00006       -0.73969
H         -4.70712        0.88856       -1.28588
H         -4.70715       -0.88843       -1.28587
H         -4.83218        0.00008        0.25265
N         -0.95582        1.15387        0.45948
N         -0.95585       -1.15384        0.45949
H         -2.58525        2.11796       -0.41515
H         -2.97584       -1.28617        1.09988
C         -0.29057       -2.47978        0.67357
C         -0.29049        2.47979        0.67357
C          0.12479       -3.06859       -0.67377
H          0.86749       -2.41515       -1.15873
H          0.57048       -4.06561       -0.53944
H         -0.74152       -3.17291       -1.34625
C         -1.27630       -3.42526        1.37722
H         -1.64953       -2.98649        2.31487
H         -2.13542       -3.71026        0.75569
H         -0.74479       -4.35257        1.63118
C          0.91096        2.35047        1.61027
H          1.28392        3.35692        1.84955
H          0.62112        1.85239        2.54755
H          1.73889        1.78193        1.16193
C          0.12489        3.06859       -0.67377
H         -0.74143        3.17293       -1.34625
H          0.57061        4.06559       -0.53944
H          0.86757        2.41513       -1.15872
C         -1.27620        3.42529        1.37722
H         -0.74466        4.35259        1.63118
H         -2.13532        3.71031        0.75570
H         -1.64944        2.98654        2.31487
C          0.91089       -2.35050        1.61027
H          1.28382       -3.35697        1.84954
H          1.73884       -1.78199        1.16193
H          0.62106       -1.85242        2.54755
Au         1.71018       -0.00002       -0.40042
H          3.06881       -0.00004       -1.24942
