76
6s_diet_dIad_auh.log	Energy: -840882.5195539
C          1.26755        2.46788        0.16567
C         -0.06139        3.10889        0.51591
C         -1.07565        2.46984       -0.41703
C          0.00582        0.34285       -0.09609
H          1.96771        2.59268        1.00870
H         -0.79703        2.67726       -1.46579
N         -1.14211        1.03290       -0.21441
N          1.16416        1.04012       -0.14120
H         -2.05429        2.92352       -0.24423
H          1.70791        2.99567       -0.69158
C          0.00928        4.62789        0.25369
H         -0.87939        5.08764        0.71986
H          0.87208        5.01783        0.82171
C         -0.44160        2.93682        2.00794
H          0.03903        3.77062        2.54908
H         -1.52721        3.12134        2.09733
C          0.10380        5.09701       -1.19099
H         -0.81636        4.89342       -1.75855
H          0.26920        6.18406       -1.22652
H          0.93967        4.62763       -1.73352
C         -0.08224        1.65224        2.74218
H          0.99561        1.43884        2.69544
H         -0.34211        1.75394        3.80671
H         -0.60569        0.76817        2.35906
C          2.48319        0.34308       -0.29124
C          2.40193       -0.74072       -1.37919
C          3.57554        1.33048       -0.75934
C          2.93910       -0.26100        1.04494
H          2.11096       -0.26309       -2.33059
H          1.61480       -1.47060       -1.13250
C          3.73543       -1.47444       -1.52110
H          3.71196        2.14540       -0.03417
H          3.27980        1.78651       -1.71933
C          4.92368        0.61547       -0.91904
H          2.16433       -0.95834        1.40824
H          3.03632        0.54352        1.79501
C          4.27347       -0.98926        0.87554
H          3.61851       -2.27112       -2.27370
C          4.81392       -0.48978       -1.96734
C          4.11724       -2.09424       -0.17339
H          5.67065        1.36131       -1.23765
C          5.34163        0.00739        0.42171
H          4.56265       -1.43414        1.84167
H          4.55458       -0.06090       -2.95014
H          5.78444       -1.00095       -2.08374
H          3.33909       -2.80689        0.14589
H          5.05951       -2.65931       -0.27082
H          6.31823       -0.49482        0.31908
H          5.46673        0.80089        1.17839
C         -2.47003        0.34240       -0.33620
C         -2.40506       -0.71458       -1.45237
C         -2.88328       -0.29628        0.99833
C         -3.59152        1.32707       -0.72188
H         -1.59611       -1.43096       -1.23701
H         -2.14848       -0.21098       -2.40056
C         -3.73203       -1.46180       -1.57465
H         -2.97158        0.49633        1.76127
H         -2.09457       -0.99123        1.33519
C         -4.20719       -1.04797        0.84925
H         -3.34696        1.84098       -1.66609
H         -3.71445        2.09696        0.05698
C         -4.93258        0.59481       -0.87203
H         -3.63235       -2.23565       -2.35320
C         -4.06375       -2.12231       -0.23300
C         -4.83276       -0.47436       -1.95910
H         -4.45460       -1.52375        1.81214
C         -5.30836       -0.06280        0.45660
H         -5.69718        1.33935       -1.14895
H         -3.26481       -2.82944        0.04451
H         -4.99923       -2.70065       -0.31694
H         -4.60343       -0.01024       -2.93343
H         -5.80032       -0.99240       -2.06856
H         -6.27641       -0.58243        0.35988
H         -5.43118        0.70332        1.24115
Au         0.00489       -1.71572        0.51287
H          0.00459       -3.21627        1.08615
