88
6s_dinbu_dIad_auh.log	Energy: -939612.7358076
C          1.40923        1.94728        0.41102
C          0.10796        2.61837        0.80819
C         -0.87562        2.23560       -0.28653
C          0.01557        0.00503       -0.26613
H          2.06784        1.86364        1.29124
H         -0.49178        2.57252       -1.26606
N         -1.06954        0.79661       -0.31792
N          1.22171        0.60892       -0.15453
H         -1.82556        2.74588       -0.11430
H          1.93192        2.58279       -0.31708
C          0.29735        4.14720        0.83995
H         -0.58488        4.58484        1.33988
H          1.14908        4.36206        1.51073
C         -0.40063        2.19576        2.21028
H          0.00835        2.92056        2.93678
H         -1.49459        2.35400        2.23112
C          0.51225        4.87258       -0.48237
H         -0.39719        4.80895       -1.10419
H          1.31125        4.38417       -1.06872
C         -0.08916        0.80361        2.74661
H          1.00298        0.65687        2.80007
H         -0.46081        0.01861        2.07378
C          0.87233        6.34091       -0.29285
H          0.08613        6.83099        0.30835
H          1.79436        6.41099        0.31099
C          1.05814        7.08948       -1.60239
H          1.32127        8.14444       -1.43341
H          1.86056        6.63984       -2.20924
H          0.13828        7.06939       -2.20870
C         -0.68269        0.56330        4.12751
H         -0.31804        1.33415        4.83054
H         -1.77804        0.70090        4.07639
C         -0.36740       -0.82340        4.66485
H         -0.73758       -1.60531        3.98259
H          0.71952       -0.97219        4.76780
H         -0.82236       -0.99253        5.65249
C          2.49276       -0.15504       -0.36560
C          2.38447       -1.05415       -1.60823
C          3.66793        0.80921       -0.64044
C          2.84726       -0.98715        0.87555
H          2.16547       -0.41953       -2.48412
H          1.54080       -1.75385       -1.49995
C          3.67081       -1.85282       -1.81924
H          3.82745        1.49216        0.20615
H          3.44311        1.42650       -1.52683
C          4.97013        0.03009       -0.86511
H          2.01221       -1.67358        1.09946
H          2.96345       -0.31668        1.74493
C          4.13632       -1.77599        0.63949
H          3.53301       -2.51570       -2.68894
C          4.83101       -0.89280       -2.07385
C          3.95292       -2.69534       -0.57154
H          5.77915        0.75833       -1.04097
C          5.28747       -0.80232        0.37937
H          4.35337       -2.38171        1.53449
H          4.64305       -0.30227       -2.98656
H          5.76900       -1.44993       -2.23682
H          3.11670       -3.39070       -0.39112
H          4.85927       -3.30514       -0.72435
H          6.23186       -1.35302        0.23314
H          5.43216       -0.14325        1.25261
C         -2.44571        0.24265       -0.54045
C         -2.93209       -0.53188        0.69439
C         -3.47564        1.35946       -0.79786
C         -2.44683       -0.65889       -1.78698
H         -2.96538        0.15491        1.55784
H         -2.20949       -1.33010        0.93721
C         -4.31052       -1.14316        0.43829
H         -3.17179        1.97281       -1.66230
H         -3.54922        2.02575        0.07689
C         -4.86901        0.76766       -1.05368
H         -1.70222       -1.46173       -1.66432
H         -2.13418       -0.05681       -2.65763
C         -3.82782       -1.27095       -2.01597
H         -4.61303       -1.71980        1.32758
C         -5.32012       -0.02628        0.17339
C         -4.23599       -2.07327       -0.77649
H         -5.56560        1.60302       -1.23406
C         -4.83749       -0.15351       -2.27261
H         -3.77795       -1.94065       -2.88997
H         -5.39305        0.63699        1.05222
H         -6.32572       -0.44584        0.00254
H         -3.50234       -2.87478       -0.59028
H         -5.21383       -2.55565       -0.94312
H         -5.84202       -0.57033       -2.45618
H         -4.55418        0.41448       -3.17507
Au        -0.16181       -2.11257        0.03804
H         -0.29591       -3.67305        0.39486
