64
6s_dih_dIad_auh.log	Energy: -742154.3150579
C         -1.22427        2.75789       -0.73081
C          1.22428        2.75794       -0.73064
H         -2.11963        2.84582       -1.36112
H          1.32709        3.49510        0.08454
N          1.15872        1.39747       -0.20777
N         -1.15867        1.39746       -0.20784
H          2.11971        2.84598       -1.36082
H         -1.32725        3.49510        0.08431
C         -2.47071        0.76654        0.13189
C         -2.32943       -0.21888        1.30323
C         -3.47119        1.84605        0.60084
C         -3.06034        0.05084       -1.09070
H         -1.91999        0.31957        2.17491
H         -1.60777       -1.01110        1.05041
C         -3.67532       -0.86359        1.63819
H         -3.64259        2.60008       -0.18017
H         -3.06100        2.37128        1.47999
C         -4.82700        1.21736        0.94363
H         -2.34462       -0.71971       -1.42615
H         -3.17919        0.77231       -1.91860
C         -4.40805       -0.58210       -0.73801
H         -3.52036       -1.59018        2.45228
C         -4.66616        0.21096        2.08050
C         -4.21026       -1.58826        0.39939
H         -5.51328        2.02386        1.25066
C         -5.38486        0.50955       -0.29418
H         -4.80482       -1.09992       -1.62646
H         -4.29916        0.71691        2.98950
H         -5.64130       -0.23900        2.33226
H         -3.50174       -2.37319        0.08772
H         -5.16602       -2.08563        0.63562
H         -6.37046        0.07116       -0.06439
H         -5.53991        1.23578       -1.11060
C          2.47077        0.76653        0.13191
C          3.06040        0.05087       -1.09072
C          3.47128        1.84602        0.60081
C          2.32948       -0.21892        1.30322
H          3.17927        0.77237       -1.91858
H          2.34468       -0.71966       -1.42622
C          4.40809       -0.58211       -0.73804
H          3.06112        2.37131        1.47994
H          3.64272        2.59998       -0.18025
C          4.82707        1.21730        0.94362
H          1.60781       -1.01112        1.05036
H          1.92005        0.31950        2.17491
C          3.67537       -0.86365        1.63815
H          4.80484       -1.09991       -1.62651
C          5.38493        0.50949       -0.29419
C          4.21028       -1.58830        0.39933
H          5.51336        2.02378        1.25068
C          4.66620        0.21089        2.08048
H          3.52041       -1.59026        2.45223
H          5.54002        1.23574       -1.11059
H          6.37052        0.07107       -0.06439
H          3.50175       -2.37321        0.08765
H          5.16604       -2.08570        0.63554
H          5.64134       -0.23909        2.33225
H          4.29920        0.71682        2.98949
C          0.00005        3.04972       -1.55641
H          0.00005        4.09869       -1.88551
H          0.00014        2.41368       -2.45675
C          0.00002        0.71225       -0.13853
Au        -0.00006       -1.38855       -0.58321
H         -0.00013       -2.89385       -1.13329
