57
7s_dImes_auh.log	Energy: -715955.0927134
N          1.15666        1.39945        0.14295
N         -1.15178        1.31456        0.38981
C          0.01154        0.69584        0.13241
C          1.34844        2.85784        0.05508
H          2.30980        2.99097       -0.46068
H          1.48597        3.29748        1.05916
C          0.25822        3.57812       -0.72108
H          0.04370        2.99060       -1.62773
H          0.65440        4.54495       -1.06770
C         -1.01935        3.79136        0.08577
H         -0.94790        4.71089        0.69012
H         -1.87930        3.92908       -0.58811
C         -1.26447        2.62740        1.02748
H         -0.54578        2.65787        1.86267
H         -2.26683        2.68885        1.47189
C          2.38224        0.64782        0.11800
C          2.94694        0.23714        1.33195
C          4.16158       -0.45094        1.29514
H          4.60974       -0.77964        2.23724
C          4.80933       -0.73754        0.09208
C          4.21067       -0.31745       -1.09909
H          4.69491       -0.54692       -2.05272
C          2.99946        0.37398       -1.11202
C          2.23514        0.48148        2.62900
H          1.93774        1.53473        2.74814
H          2.86677        0.20655        3.48425
H          1.31423       -0.12284        2.67748
C          6.09268       -1.51573        0.07158
H          6.76300       -1.16866       -0.72849
H          5.89564       -2.58553       -0.10910
H          6.62895       -1.43716        1.02801
C          2.33786        0.75540       -2.40132
H          1.36438        0.24363       -2.48739
H          2.95512        0.46496       -3.26162
H          2.14641        1.83781       -2.47252
C         -2.36612        0.56239        0.23641
C         -2.98020        0.49418       -1.02153
C         -4.18149       -0.20944       -1.13139
H         -4.66648       -0.27102       -2.10984
C         -4.77030       -0.84257       -0.03540
C         -4.12011       -0.76669        1.19900
H         -4.55285       -1.27466        2.06575
C         -2.91765       -0.07776        1.35722
C         -2.33915        1.10901       -2.22946
H         -1.37016        0.62475       -2.43469
H         -2.14566        2.18362       -2.09442
H         -2.97517        0.98669       -3.11613
C         -6.04074       -1.62726       -0.18732
H         -6.66220       -1.56978        0.71827
H         -5.82025       -2.69299       -0.36523
H         -6.63801       -1.26936       -1.03811
C         -2.19376       -0.08044        2.66997
H         -2.74831       -0.65566        3.42301
H         -2.03585        0.93346        3.06950
H         -1.20045       -0.54373        2.54805
Au         0.03912       -1.36052       -0.25838
H          0.05566       -2.94307       -0.56115
