75
7s_dIdipp_auh.log	Energy: -864035.7608605
N         -1.17706       -0.31882        1.21294
N          1.09872        0.15577        1.15305
C         -0.05466       -0.09863        0.50816
C         -1.33554       -0.54272        2.66323
H         -2.25630       -1.13329        2.75943
H         -1.54459        0.41360        3.17668
C         -0.19214       -1.29106        3.32896
H          0.06392       -2.15533        2.70031
H         -0.56691       -1.71081        4.27497
C          1.04794       -0.43959        3.58554
H          0.98924        0.05343        4.56978
H          1.94667       -1.07532        3.60797
C          1.19254        0.63960        2.53327
H          0.41927        1.41251        2.67330
H          2.15927        1.15027        2.62778
C         -2.43756       -0.19112        0.52222
C         -2.99334        1.10784        0.48377
C         -4.25746        1.29515       -0.10405
H         -4.69275        2.29816       -0.16098
C         -4.87558        0.18180       -0.59352
C         -4.38708       -1.09056       -0.57645
H         -4.93409       -1.94346       -0.99371
C         -3.11001       -1.31197       -0.01219
C         -2.25476        2.32920        1.00064
H         -1.33748        1.97668        1.49402
C         -2.60516       -2.74435       -0.16530
H         -3.51001       -3.36555       -0.04587
C          2.31890        0.18167        0.39390
C          3.01457       -1.02557        0.19283
C          4.24356       -0.98317       -0.49719
H          4.80127       -1.90718       -0.68056
C          4.66723        0.24219       -0.91964
C          4.02972        1.43923       -0.76428
H          4.42460        2.38294       -1.15419
C          2.79509        1.41849       -0.08802
C          2.46151       -2.36701        0.62758
H          1.56462       -2.16070        1.22927
C          2.01435        2.71067        0.05674
H          1.04487        2.45526        0.51033
C          1.71628        3.32502       -1.31032
H          2.63936        3.64241       -1.82008
H          1.19919        2.59947       -1.95725
H          1.07551        4.21321       -1.20025
C          2.72530        3.70345        0.97589
H          2.11733        4.61228        1.10670
H          2.91970        3.27781        1.97221
H          3.69524        4.01096        0.55409
C          2.01742       -3.17688       -0.59039
H          2.87621       -3.43286       -1.23084
H          1.53497       -4.11672       -0.27958
H          1.30458       -2.60176       -1.20174
C          3.43581       -3.14378        1.50877
H          3.74309       -2.55638        2.38778
H          2.97194       -4.07709        1.86414
H          4.34922       -3.42174        0.95987
C         -1.59420       -3.27302        0.84229
H         -0.60942       -2.80715        0.71402
H         -1.92537       -3.13595        1.88130
H         -1.46636       -4.35459        0.68236
C         -2.09875       -2.96282       -1.59429
H         -2.86960       -2.71391       -2.33751
H         -1.22944       -2.31755       -1.80448
H         -1.80262       -4.01355       -1.73974
C         -3.06354        3.09842        2.04269
H         -2.47259        3.93484        2.44761
H         -3.98135        3.52618        1.61017
H         -3.36298        2.45104        2.88126
C         -1.82113        3.22077       -0.16201
H         -2.69311        3.63919       -0.68881
H         -1.21073        4.06307        0.20052
H         -1.23083        2.64737       -0.89329
Au        -0.08671       -0.01059       -1.58149
H         -0.10694        0.12095       -3.18801
H          5.60660        0.26842       -1.43131
H         -5.84025        0.32137       -1.03493
