45
7s_dIphme_auh.log	Energy: -617209.9148324
N          1.11386        1.52097        0.03337
N         -1.16700        1.38081        0.42033
C          0.00027        0.76710        0.14242
C          1.22103        2.96008       -0.26919
H          2.11882        3.06176       -0.89360
H          1.43157        3.53440        0.65074
C          0.02753        3.53159       -1.01676
H         -0.24758        2.82604       -1.81708
H          0.34173        4.45887       -1.51978
C         -1.17084        3.80074       -0.11104
H         -1.07954        4.78517        0.37712
H         -2.09979        3.82503       -0.70204
C         -1.25953        2.73469        0.96436
H         -0.44790        2.85532        1.69837
H         -2.20158        2.81279        1.52161
C          2.36697        0.82664        0.06490
C          2.82296        0.27554        1.26070
C          4.03549       -0.40595        1.29622
H          4.37573       -0.84312        2.23853
C          4.81952       -0.54980        0.14690
C          4.35107        0.02004       -1.04346
H          4.94008       -0.08618       -1.95831
C          3.13946        0.70035       -1.08955
C          6.10236       -1.32739        0.17803
H          6.81932       -0.95651       -0.56864
H          5.91618       -2.39112       -0.04543
H          6.57977       -1.28008        1.16737
C         -2.38388        0.65503        0.25373
C         -2.71885        0.13615       -0.99780
C         -3.89880       -0.58082       -1.16315
H         -4.14093       -0.98832       -2.14813
C         -4.77610       -0.79260       -0.09388
C         -4.43108       -0.25556        1.15158
H         -5.09384       -0.41231        2.00677
C         -3.24913        0.45650        1.32975
C         -6.02711       -1.60190       -0.27110
H         -6.47874       -1.43541       -1.26011
H         -6.77794       -1.36061        0.49475
H         -5.80774       -2.67960       -0.19062
H          2.20975        0.37090        2.15881
H          2.77505        1.11100       -2.03416
H         -2.98560        0.83681        2.31928
H         -2.04051        0.29166       -1.83852
Au         0.10442       -1.31440       -0.08815
H          0.18869       -2.91387       -0.26522
