67
7s_dIad_auh.log	Energy: -766828.0952353
N          1.15987        1.07151        0.07826
N         -1.16990        1.01199        0.11823
C          0.00812        0.36674        0.02700
C          1.33706        2.48088       -0.29816
H          2.27905        2.52570       -0.85168
H          1.48123        3.11345        0.59617
C          0.24764        3.05965       -1.18644
H          0.00684        2.32712       -1.97309
H          0.65355        3.94391       -1.70144
C         -1.00276        3.42800       -0.40002
H         -0.87604        4.40257        0.10038
H         -1.86919        3.52684       -1.07256
C         -1.25261        2.36520        0.65241
H         -0.50282        2.44760        1.45554
H         -2.22507        2.49643        1.13417
C          2.38567        0.28865        0.31625
C          3.36739        0.86186        1.35465
H          1.99096       -0.63302        0.76667
C          3.17307       -0.17223       -0.92496
C          4.32726        1.92055        0.79102
H          2.79567        1.27176        2.20428
C          4.21240       -0.33321        1.82714
C          4.01330       -1.37071       -0.45763
C          4.12730        0.88752       -1.48921
H          2.45196       -0.50495       -1.68917
H          5.03465        2.21305        1.58560
H          3.80348        2.84264        0.50113
C          5.10338        1.34431       -0.39860
H          3.56236       -1.09875        2.28139
H          4.91893       -0.00479        2.60799
C          4.98506       -0.92508        0.64150
H          4.57718       -1.78580       -1.30958
H          3.34576       -2.16948       -0.09513
H          3.58742        1.74671       -1.91835
H          4.69157        0.44650       -2.32840
H          5.77745        2.11631       -0.80546
C          5.92595        0.14206        0.07492
H          5.57163       -1.79250        0.98647
H          6.65124        0.45974        0.84334
H          6.50856       -0.27273       -0.76493
C         -2.39098        0.23647       -0.13451
C         -3.44747        0.89182       -1.04146
H         -2.00989       -0.62775       -0.69891
C         -3.08288       -0.35362        1.10710
C         -4.35697        1.89095       -0.31204
H         -2.94205        1.37786       -1.89284
C         -4.32944       -0.25840       -1.55518
C         -3.96120       -1.50440        0.59647
C         -3.97682        0.65324        1.83959
H         -2.30469       -0.75280        1.77759
H         -5.12400        2.25217       -1.01805
H         -3.80964        2.78700        0.01700
C         -5.03668        1.20510        0.87840
H         -3.71739       -0.97754       -2.12367
H         -5.09004        0.13786       -2.24886
C         -5.01392       -0.95855       -0.37466
H         -4.45723       -2.00151        1.44677
H         -3.32842       -2.26176        0.10544
H         -3.38986        1.47044        2.28816
H         -4.47222        0.14485        2.68402
H         -5.67247        1.93395        1.40791
C         -5.90008        0.04969        0.36252
H         -5.63164       -1.78956       -0.75309
H         -6.68321        0.43579       -0.31206
H         -6.41554       -0.44283        1.20430
Au         0.05126       -1.74335       -0.18768
H          0.08210       -3.34315       -0.36250
