43
7s_dIterbutyl_auh.log	Energy: -475183.6191358
N          0.74490        1.47440        0.09401
N         -1.41735        0.73711        0.39938
C         -0.12586        0.42505        0.19866
C          0.48961        2.66126       -0.74063
H          1.30725        2.70248       -1.47758
H          0.56653        3.58379       -0.14053
C         -0.82489        2.67559       -1.49870
H         -0.95590        1.72030       -2.03074
H         -0.76414        3.45530       -2.27306
C         -1.99534        2.93537       -0.56232
H         -2.05178        4.00399       -0.29644
H         -2.94954        2.67846       -1.04890
C          2.19062        1.30097        0.44989
C          2.32659        0.41703        1.69088
H          1.71991        0.81669        2.51789
H          2.01289       -0.62002        1.50107
H          3.37936        0.39929        2.00862
C          2.76524        2.67258        0.83407
H          3.77803        2.52641        1.23453
H          2.85239        3.36364       -0.01526
H          2.15933        3.15116        1.61903
C         -2.50039       -0.31006        0.36751
C         -2.23135       -1.37141        1.43588
H         -3.05388       -2.10155        1.44712
H         -1.29451       -1.91715        1.24411
H         -2.16611       -0.90455        2.43053
C         -3.87189        0.30087        0.67325
H         -4.14642        1.10938       -0.01922
H         -4.62042       -0.49454        0.55419
H         -3.95660        0.66659        1.70684
C         -2.57829       -0.91776       -1.03493
H         -1.62835       -1.39997       -1.31480
H         -3.37034       -1.68019       -1.07056
H         -2.81347       -0.14177       -1.78012
C          2.98972        0.72265       -0.71938
H          4.05324        0.64367       -0.44908
H          2.62215       -0.28326       -0.97913
H          2.92013        1.36171       -1.61343
Au         0.56393       -1.53902       -0.22711
H          1.09036       -2.99220       -0.67334
C         -1.78624        2.11749        0.70078
H         -2.66416        2.13613        1.35232
H         -0.95428        2.54076        1.28372
