45
CAAC_mes_auh.log	Energy: -536143.5316250
C         -2.28831        1.29642       -0.03720
C         -1.72292        2.70636       -0.30483
C         -0.21498        2.63709       -0.02014
H         -1.88289        2.97206       -1.36067
H         -2.21448        3.48024        0.30202
N          0.00486        1.14909       -0.04677
C          1.32697        0.58683       -0.01260
C          1.90640        0.24477        1.22329
C          1.99158        0.32961       -1.22376
C          3.20996       -0.25446        1.21985
C          3.29410       -0.17128       -1.16700
C          3.93298       -0.44632        0.04154
H          3.66362       -0.53064        2.17611
H          3.81423       -0.37881       -2.10671
C          1.34156        0.50436       -2.56636
H          0.25192        0.60329       -2.49247
H          1.73517        1.38543       -3.09722
H          1.54909       -0.37420       -3.19394
C          5.34517       -0.95160        0.07586
H          5.50336       -1.64713        0.91273
H          5.61103       -1.46970       -0.85644
H          6.05624       -0.11836        0.20419
C          1.16336        0.32583        2.52619
H          1.39034        1.25210        3.07622
H          0.07699        0.26687        2.38351
H          1.45436       -0.51612        3.16935
C         -3.28527        0.85906       -1.10911
H         -3.63508       -0.16611       -0.91831
H         -4.15488        1.53528       -1.11539
H         -2.82822        0.87664       -2.11035
C         -2.93587        1.16858        1.34855
H         -3.83875        1.79725        1.39572
H         -3.22282        0.12466        1.54328
H         -2.25662        1.48678        2.15319
C          0.61067        3.33888       -1.08974
H          1.68833        3.18100       -0.93475
H          0.34399        2.99389       -2.09680
H          0.41522        4.42021       -1.03955
C          0.15890        3.19700        1.34957
H          1.22794        3.04561        1.55768
H         -0.03754        4.27901        1.36298
H         -0.42492        2.73355        2.15515
C         -1.06926        0.40230       -0.05267
Au        -1.08594       -1.65375       -0.02473
H         -1.12027       -3.27111        0.00305
