50
CAAC_ad_auh.log	Energy: -561582.5040427
C         -2.25145        1.53112       -0.07949
C         -1.60464        2.89685       -0.32028
C         -0.10950        2.73499       -0.01448
H         -1.72643        3.17595       -1.37800
H         -2.05002        3.70255        0.28123
N          0.04804        1.23347       -0.14198
C         -3.26876        1.18392       -1.16786
H         -3.69703        0.18496       -0.99863
H         -4.08493        1.92410       -1.16661
H         -2.80261        1.18681       -2.16501
C         -2.92539        1.41459        1.29497
H         -3.76986        2.11920        1.35181
H         -3.30569        0.39398        1.44911
H         -2.23474        1.64057        2.11990
C          0.68228        3.56058       -1.02842
H          1.72847        3.72284       -0.74915
H          0.64359        3.10241       -2.02757
H          0.20770        4.55107       -1.09805
C          0.21855        3.17144        1.41449
H          1.27350        3.00577        1.66934
H          0.01560        4.24758        1.52040
H         -0.39588        2.63348        2.14864
C         -1.08400        0.57152       -0.12050
C          1.36091        0.49676       -0.08638
C          2.60003        1.39403       -0.23461
C          1.44999       -0.23064        1.26677
C          1.42027       -0.51974       -1.24003
H          2.62436        2.17347        0.53996
H          2.59125        1.89163       -1.21368
C          3.88403        0.55744       -0.13160
H          0.55949       -0.86965        1.38543
H          1.43318        0.51334        2.08112
C          2.72010       -1.07632        1.34002
H          1.38421        0.02605       -2.19856
H          0.53486       -1.17457       -1.20494
C          2.68927       -1.36806       -1.14525
H          4.74215        1.24341       -0.22325
C          3.94021       -0.16367        1.21508
C          3.91851       -0.46843       -1.26399
H          2.73975       -1.60077        2.30909
C          2.71177       -2.09922        0.20037
H          2.67935       -2.10352       -1.96578
H          3.95412        0.56771        2.04130
H          4.87125       -0.74982        1.28979
H          3.92504        0.04241       -2.24178
H          4.84325       -1.06656       -1.20667
H          3.60395       -2.74426        0.26413
H          1.82850       -2.75287        0.28856
Au        -1.50207       -1.46987        0.00692
H         -1.90237       -3.02513        0.15256
