39
CAAC_phMe_auh.log	Energy: -486774.2844450
C         -2.25416        1.22551       -0.01294
C         -1.76956        2.66858       -0.26733
C         -0.25205        2.67095       -0.02838
H         -1.97452        2.94741       -1.31189
H         -2.28030        3.40399        0.37071
N          0.03906        1.20136       -0.08388
C         -3.24951        0.75295       -1.07139
H         -3.53909       -0.29269       -0.89104
H         -4.15446        1.38057       -1.04633
H         -2.81626        0.81217       -2.08142
C         -2.86461        1.04263        1.38363
H         -3.79169        1.63163        1.46293
H         -3.10236       -0.01626        1.56254
H         -2.18058        1.37175        2.17976
C          0.50504        3.41649       -1.11905
H          1.59282        3.37018       -0.96403
H          0.27371        3.00710       -2.11342
H          0.20522        4.47495       -1.10855
C          0.14165        3.20860        1.34536
H          1.22146        3.09271        1.52062
H         -0.09865        4.28017        1.40607
H         -0.39806        2.68958        2.15001
C         -0.99142        0.39487       -0.06492
C          1.38668        0.72046       -0.04588
C          2.12189        0.59799       -1.22241
C          1.95605        0.35430        1.17256
C          3.42638        0.11611       -1.17353
H          1.66237        0.85830       -2.17714
C          3.26099       -0.12443        1.20870
H          1.36310        0.42586        2.08605
C          4.01925       -0.25374        0.03891
H          3.99292        0.01363       -2.10263
H          3.69595       -0.41748        2.16769
C          5.40974       -0.81538        0.08080
H          5.38370       -1.91705        0.04172
H          6.01135       -0.47061       -0.77212
H          5.93117       -0.53420        1.00719
Au        -0.90491       -1.65950       -0.02732
H         -0.86156       -3.27612        0.01370
