54
CAAC_dipp_auh.log	Energy: -610190.0399669
C          1.65215        0.00167        2.02134
C          0.59123       -0.20078        3.12126
C         -0.76760        0.12568        2.48614
H          0.59798       -1.25204        3.44704
H          0.78127        0.41612        4.01125
N         -0.41684        0.03324        1.02072
C         -1.44063        0.04499        0.00777
C         -1.85178        1.27050       -0.55235
C         -1.98641       -1.18479       -0.41218
C         -2.90671        1.24425       -1.46984
C         -3.03499       -1.15193       -1.33493
C         -3.51015        0.05068       -1.84301
H         -3.24518        2.18115       -1.91754
H         -3.47449       -2.09161       -1.67617
C         -1.40795       -2.52587       -0.00118
H         -0.70321       -2.35275        0.82448
C         -1.12926        2.58174       -0.30636
H         -0.40891        2.42452        0.50708
C          2.70789       -1.10274        2.02878
H          3.42664       -0.95907        1.20872
H          3.25493       -1.09591        2.98493
H          2.24794       -2.09471        1.90173
C          2.34094        1.37135        2.09873
H          2.93698        1.43594        3.02235
H          3.00987        1.51278        1.23707
H          1.61692        2.19938        2.10012
C         -1.84614       -0.87828        2.86922
H         -2.77903       -0.69892        2.31489
H         -1.52492       -1.91240        2.69250
H         -2.06327       -0.77247        3.94222
C         -1.26187        1.52773        2.82974
H         -2.17453        1.77146        2.26847
H         -1.50475        1.56811        3.90146
H         -0.50780        2.29861        2.62479
C          0.85786       -0.03293        0.73535
Au         1.67983       -0.12630       -1.14984
C         -2.06727        3.71494        0.10429
H         -1.48879        4.61967        0.34668
H         -2.75830        3.98177       -0.71022
H         -2.67615        3.45510        0.98291
C         -0.31721        2.96495       -1.54620
H         -0.97529        3.14904       -2.40994
H          0.26128        3.88304       -1.35818
H          0.38764        2.16336       -1.82014
C         -2.46901       -3.51070        0.48518
H         -3.15267       -3.80264       -0.32683
H         -1.99334       -4.43291        0.85293
H         -3.07971       -3.09196        1.29882
C         -0.59572       -3.11320       -1.15811
H         -0.12117       -4.05975       -0.85508
H         -1.23944       -3.31838       -2.02792
H          0.19548       -2.41672       -1.47990
H          2.35516       -0.20096       -2.61798
H         -4.33448        0.05459       -2.55991
