38
CAAC_terbutyl_auh.log	Energy: -415758.0602105
C          0.44508        1.92674        0.06834
C          1.91280        2.04121       -0.34648
C          2.53869        0.64506       -0.17006
H          1.96969        2.33772       -1.40412
H          2.45847        2.80189        0.22967
N          1.30807       -0.21828        0.01586
C         -0.47439        2.70863       -0.86720
H         -1.52642        2.60683       -0.56339
H         -0.20319        3.77650       -0.85041
H         -0.38967        2.34733       -1.90324
C          0.20643        2.37694        1.51797
H          0.39745        3.45813        1.60472
H         -0.83345        2.17870        1.81697
H          0.86706        1.85280        2.22459
C          3.29657        0.29652       -1.45215
H          3.84897       -0.64893       -1.40785
H          2.60920        0.26089       -2.30983
H          4.03153        1.09276       -1.64468
C          3.45935        0.62073        1.05079
H          4.01053       -0.31938        1.15788
H          4.20208        1.42530        0.94829
H          2.89328        0.80155        1.97583
C          0.17444        0.44023        0.03857
C          1.32353       -1.72980        0.09097
C          0.81227       -2.26492       -1.24740
H          1.48778       -1.98901       -2.07080
H          0.74567       -3.36206       -1.21105
H         -0.19091       -1.86479       -1.46012
C          2.70141       -2.32799        0.38493
H          3.05098       -2.08222        1.39596
H          2.58919       -3.42022        0.34266
H          3.47738       -2.06300       -0.34010
C          0.42510       -2.18855        1.24369
H         -0.63486       -1.95139        1.06994
H          0.51901       -3.27815        1.35800
H          0.73507       -1.71406        2.18704
Au        -1.80807       -0.19470       -0.03745
H         -3.36180       -0.60637       -0.17042
