129
ipr_star_auh.log	Energy: -1826297.8226453
N          0.00001       -0.89675        0.99705
C          0.00009        0.00056       -0.01932
N          0.00029        1.20063        0.60421
C          0.00033        1.05672        1.98515
H          0.00048        1.91311        2.65244
C          0.00015       -0.27675        2.23202
H          0.00013       -0.83496        3.16266
C          0.00033        2.45944       -0.06549
C          1.22778        3.06312       -0.37385
C         -1.22702        3.06310       -0.37397
C          1.20147        4.30124       -1.01458
C         -1.20061        4.30128       -1.01475
C          0.00042        4.93201       -1.34866
H          2.14784        4.79235       -1.25230
H         -2.14695        4.79239       -1.25259
C         -0.00024       -2.30416        0.75831
C         -1.22600       -2.96192        0.60626
C          1.22527       -2.96234        0.60622
C         -1.20414       -4.33604        0.37202
C          1.20293       -4.33647        0.37198
C         -0.00072       -5.04123        0.27061
H         -2.15244       -4.86136        0.23592
H          2.15104       -4.86211        0.23584
C         -2.53966        2.37759       -0.03699
H         -2.29824        1.57364        0.67539
C          2.54035        2.37749       -0.03681
H          2.29888        1.57383        0.67588
C         -2.51089       -2.15682        0.66816
H         -2.30853       -1.22179        0.11944
C          2.51044       -2.15767        0.66807
H          2.30841       -1.22261        0.11928
C          2.86361       -1.75269        2.08620
C          3.58058       -0.57033        2.30044
C          2.48540       -2.51424        3.19546
C          3.89449       -0.14469        3.58762
H          3.89147        0.02284        1.43799
C          2.80125       -2.09373        4.48824
H          1.92274       -3.43904        3.04496
C          3.50058       -0.90535        4.68944
H          4.44513        0.78889        3.72837
H          2.49431       -2.69961        5.34451
H          3.74105       -0.57324        5.70221
C          3.64537       -2.81995       -0.08733
C          3.61123       -2.79184       -1.48732
C          4.70526       -3.46488        0.55285
C          4.61527       -3.40416       -2.23020
H          2.78796       -2.27652       -1.99308
C          5.71382       -4.07771       -0.19276
H          4.74703       -3.48050        1.64459
C          5.67109       -4.05041       -1.58478
H          4.57632       -3.36886       -3.32168
H          6.53957       -4.57665        0.32065
H          6.46193       -4.52860       -2.16798
C         -3.64602       -2.81866       -0.08735
C         -3.61189       -2.79036       -1.48733
C         -4.70609       -3.46338        0.55276
C         -4.61611       -3.40231       -2.23028
H         -2.78847       -2.27521       -1.99303
C         -5.71483       -4.07583       -0.19292
H         -4.74785       -3.47914        1.64450
C         -5.67210       -4.04836       -1.58494
H         -4.57716       -3.36686       -3.32175
H         -6.54070       -4.57462        0.32043
H         -6.46308       -4.52624       -2.16819
C         -2.86400       -1.75183        2.08630
C         -3.58089       -0.56943        2.30056
C         -2.48585       -2.51344        3.19554
C         -3.89479       -0.14380        3.58774
H         -3.89175        0.02379        1.43813
C         -2.80169       -2.09293        4.48833
H         -1.92326       -3.43827        3.04502
C         -3.50094       -0.90452        4.68955
H         -4.44537        0.78981        3.72851
H         -2.49479       -2.69886        5.34459
H         -3.74140       -0.57242        5.70233
C         -3.18765        1.68592       -1.22803
C         -4.43630        1.06852       -1.05820
C         -2.55239        1.56887       -2.46535
C         -5.02589        0.34915       -2.09142
H         -4.96020        1.16449       -0.10365
C         -3.14429        0.85024       -3.50638
H         -1.57502        2.02752       -2.62213
C         -4.37942        0.23874       -3.32365
H         -5.98940       -0.13966       -1.93043
H         -2.61348        0.75296       -4.45555
H         -4.83632       -0.33441       -4.13373
C         -3.47303        3.31582        0.70541
C         -3.37665        3.41579        2.09747
C         -4.41321        4.10990        0.04066
C         -4.19013        4.29411        2.81012
H         -2.65637        2.78660        2.62852
C         -5.22567        4.99258        0.75015
H         -4.52279        4.01809       -1.04291
C         -5.11641        5.08917        2.13656
H         -4.10286        4.35504        3.89778
H         -5.95593        5.60471        0.21521
H         -5.75771        5.77742        2.69213
C          3.47406        3.31575        0.70511
C          3.37793        3.41624        2.09715
C          4.41432        4.10938        0.03992
C          4.19173        4.29462        2.80936
H          2.65757        2.78742        2.62854
C          5.22710        4.99212        0.74898
H          4.52370        4.01715       -1.04363
C          5.11808        5.08922        2.13537
H          4.10464        4.35596        3.89701
H          5.95742        5.60389        0.21370
H          5.75963        5.77752        2.69059
C          3.18802        1.68527       -1.22771
C          4.43644        1.06744       -1.05774
C          2.55273        1.56820       -2.46501
C          5.02576        0.34760       -2.09079
H          4.96039        1.16348       -0.10323
C          3.14436        0.84910       -3.50587
H          1.57553        2.02719       -2.62190
C          4.37923        0.23715       -3.32300
H          5.98908       -0.14154       -1.92969
H          2.61352        0.75182       -4.45503
H          4.83591       -0.33637       -4.13293
C          0.00073        6.24829       -2.06915
H          0.00894        6.09429       -3.16107
H         -0.89440        6.83921       -1.82838
H          0.88843        6.84535       -1.81612
C         -0.00103       -6.52514        0.04696
H         -0.00272       -7.06689        1.00772
H         -0.89178       -6.84639       -0.51148
H          0.89104       -6.84719       -0.50887
Au        -0.00015       -0.51928       -2.01990
H         -0.00032       -0.98528       -3.56694
