65
l_ad_auh.log	Energy: -813165.2643793
C          0.12482        3.05368       -0.07291
C         -2.02130        1.89950       -0.09325
C         -2.57702        3.14664       -0.19097
C         -1.84581        4.36743       -0.24464
C         -0.49390        4.32423       -0.16104
C          1.44505        2.71712       -0.00072
H         -3.65939        3.21627       -0.20444
H         -2.38255        5.31395       -0.32713
H          0.13610        5.21460       -0.16684
H          2.30535        3.37184        0.02851
N         -0.60226        1.83929       -0.08409
C          0.28210        0.77590       -0.05800
N          1.51421        1.35349        0.01203
C          2.81012        0.62340        0.09008
C          3.05457       -0.16173       -1.20686
C          3.97038        1.61525        0.26511
C          2.80720       -0.31621        1.30474
H          3.06797        0.54336       -2.05541
H          2.22034       -0.86387       -1.37328
C          4.37569       -0.92643       -1.11038
H          3.82239        2.21382        1.17945
H          4.00967        2.30910       -0.59074
C          5.30318        0.86183        0.35459
H          1.96561       -1.02368        1.21942
H          2.64566        0.28068        2.21845
C          4.12925       -1.08067        1.37684
H          4.51709       -1.50265       -2.03889
C          5.52785        0.06309       -0.93079
C          4.32065       -1.88224        0.08552
H          6.10972        1.60250        0.48046
C          5.28128       -0.09062        1.55119
H          4.09144       -1.76792        2.23733
H          5.58487        0.74261       -1.79807
H          6.49058       -0.47208       -0.87780
H          3.48923       -2.59471       -0.04117
H          5.25147       -2.47104        0.14119
H          6.24274       -0.62579        1.62365
H          5.15704        0.47659        2.48923
C         -2.92602        0.67882        0.04959
C         -2.59019       -0.11554        1.33269
C         -4.40549        1.11364        0.18790
C         -2.86607       -0.23003       -1.19837
H         -2.70907        0.55308        2.20302
H         -1.54196       -0.44950        1.32102
C         -3.50653       -1.33436        1.46873
H         -4.71765        1.67485       -0.70804
H         -4.51939        1.78383        1.05630
C         -5.33861       -0.08863        0.35030
H         -1.83441       -0.56900       -1.38801
H         -3.18001        0.35902       -2.07727
C         -3.77624       -1.44905       -1.02052
H         -3.20474       -1.89854        2.36665
C         -4.95626       -0.87247        1.60532
C         -3.36688       -2.22780        0.23314
H         -6.37091        0.28790        0.44490
C         -5.22677       -0.98920       -0.88050
H         -3.66845       -2.09630       -1.90631
H         -5.07487       -0.23874        2.50103
H         -5.62672       -1.73925        1.73159
H         -2.32686       -2.57855        0.13430
H         -4.00548       -3.12072        0.34315
H         -5.89791       -1.85859       -0.77775
H         -5.54510       -0.44037       -1.78348
Au         0.09501       -1.31555       -0.29249
H          0.05850       -2.90730       -0.51475
