73
l_dipp_auh.log	Energy: -910381.0073818
C          0.09209        0.00166        2.88024
C         -1.97724        0.00125        1.58396
C         -2.66847        0.00196        2.75929
C         -2.00960        0.00256        4.02778
C         -0.64892        0.00240        4.09234
C          1.42829        0.00131        2.56848
H         -3.75730        0.00206        2.70343
H         -2.60662        0.00313        4.94162
H         -0.11023        0.00282        5.04069
H          2.31039        0.00146        3.20037
N         -0.58583        0.00113        1.64428
C          0.29326        0.00046        0.59370
C          2.74526       -0.00001        0.48126
C          3.32634        1.23353        0.15059
C          3.32528       -1.23414        0.15099
C          4.55272        1.20516       -0.51842
C          4.55169       -1.20704       -0.51802
C          5.16264       -0.00126       -0.84448
H          5.03200        2.14603       -0.79854
H          5.03017       -2.14842       -0.79782
N          1.50398        0.00062        1.19715
C         -2.65377        0.00056        0.26270
C         -2.98859       -1.22818       -0.33631
C         -2.98823        1.22868       -0.33777
C         -3.71179       -1.20566       -1.53066
C         -3.71144        1.20497       -1.53209
C         -4.07713       -0.00064       -2.11971
H         -3.98170       -2.14650       -2.01572
H         -3.98108        2.14531       -2.01825
C          2.64093        2.55245        0.44322
H          1.73159        2.33695        1.02439
C          2.63892       -2.55242        0.44422
H          1.72939       -2.33597        1.02472
C         -2.56935       -2.54728        0.28200
H         -1.88431       -2.31920        1.11461
C         -2.56863        2.54841        0.27896
H         -1.88388        2.32115        1.11203
C          3.51436        3.47734        1.28844
H          3.80884        2.99953        2.23540
H          4.43597        3.76278        0.75721
H          2.97213        4.40514        1.52792
C          2.19477        3.21657       -0.85997
H          3.06017        3.49554       -1.48189
H          1.56146        2.53308       -1.44734
H          1.61892        4.13163       -0.65130
C          3.51138       -3.47711        1.29066
H          2.96860       -4.40451        1.53043
H          4.43324       -3.76328        0.76025
H          3.80542       -2.99873        2.23748
C          2.19309       -3.21723       -0.85874
H          1.61669       -4.13186       -0.64971
H          1.56039       -2.53381       -1.44686
H          3.05865       -3.49706       -1.48005
C         -3.76842       -3.28734        0.87328
H         -4.28068       -2.67588        1.63177
H         -4.50440       -3.53459        0.09172
H         -3.45295       -4.22958        1.34858
C         -1.79453       -3.41369       -0.70904
H         -1.39534       -4.31008       -0.20882
H         -2.43455       -3.75512       -1.53752
H         -0.95566       -2.84993       -1.14448
C         -3.76756        3.28969        0.86899
H         -4.50327        3.53618        0.08693
H         -4.28022        2.67940        1.62816
H         -3.45187        4.23243        1.34313
C         -1.79323        3.41323       -0.71302
H         -0.95456        2.84852       -1.14761
H         -2.43295        3.75391       -1.54205
H         -1.39370        4.31006       -0.21386
H         -4.63670       -0.00112       -3.05802
H          6.12037       -0.00175       -1.37027
Au         0.03601       -0.00102       -1.46592
H         -0.08881       -0.00229       -3.06986
