55
l_mes_auh.log	Energy: -762288.2300339
C          0.12277        3.08449        0.00002
C         -1.98433        1.84743        0.00001
C         -2.64064        3.04236        0.00001
C         -1.94533        4.29172        0.00002
C         -0.58347        4.31732        0.00003
C          1.44962        2.73489        0.00002
H         -3.73091        3.01832        0.00001
H         -2.51573        5.22248        0.00003
H         -0.01820        5.25013        0.00004
H          2.34894        3.34250        0.00002
N         -0.59097        1.86865        0.00001
C          0.25794        0.79417        0.00001
C          2.69812        0.59850        0.00000
C          3.26522        0.23934       -1.22805
C          3.26521        0.23931        1.22804
C          4.45630       -0.48728       -1.20098
C          4.45629       -0.48730        1.20097
C          5.06650       -0.85893       -0.00001
H          4.91521       -0.77939       -2.14969
H          4.91519       -0.77944        2.14967
N          1.48608        1.36084        0.00001
C         -2.68627        0.54269        0.00001
C         -3.02288       -0.06265        1.22352
C         -3.02295       -0.06261       -1.22350
C         -3.70855       -1.27687        1.19883
C         -3.70861       -1.27683       -1.19880
C         -4.05472       -1.90297        0.00001
H         -3.96213       -1.75807        2.14765
H         -3.96224       -1.75801       -2.14763
C         -4.72389       -3.24500        0.00001
H         -5.35144       -3.38621       -0.89182
H         -3.96517       -4.04540        0.00003
H         -5.35146       -3.38620        0.89183
C          6.32483       -1.67694       -0.00002
H          6.93702       -1.47727       -0.89119
H          6.93700       -1.47732        0.89120
H          6.08673       -2.75364       -0.00005
C          2.58119        0.57908       -2.51731
H          1.63489        0.01850       -2.59921
H          2.33042        1.64907       -2.58231
H          3.21034        0.31854       -3.37841
C          2.58117        0.57902        2.51731
H          2.33037        1.64900        2.58233
H          1.63489        0.01841        2.59920
H          3.21032        0.31848        3.37841
C         -2.60405        0.55692        2.52417
H         -1.50484        0.55501        2.61187
H         -2.93592        1.60288        2.60783
H         -3.00733       -0.00314        3.37847
C         -2.60419        0.55699       -2.52415
H         -2.93611        1.60293       -2.60779
H         -1.50498        0.55514       -2.61190
H         -3.00747       -0.00308       -3.37845
Au        -0.05308       -1.25651       -0.00002
H         -0.22166       -2.85757       -0.00003
