43
l_phme_auh.log	Energy: -663544.1656816
C         -0.22553        3.12227        0.00616
C          1.91265        1.95103       -0.02606
C          2.52854        3.16491       -0.12833
C          1.79667        4.39098       -0.16673
C          0.43815        4.37575       -0.07647
C         -1.54132        2.74393        0.04109
H          3.61870        3.17622       -0.13315
H          2.33728        5.33619       -0.24270
H         -0.15825        5.28891       -0.07859
H         -2.45038        3.33594        0.02159
N          0.51642        1.92312       -0.00412
C         -0.30801        0.82723       -0.01169
C         -2.76269        0.61470        0.04551
C         -3.72357        0.89962        1.01222
C         -2.99231       -0.38245       -0.90188
C         -4.91568        0.18001        1.03210
H         -3.52935        1.67073        1.76092
C         -4.18347       -1.09675       -0.86340
H         -2.23338       -0.59871       -1.65538
C         -5.16492       -0.83332        0.10133
H         -5.66259        0.40433        1.79790
H         -4.35359       -1.88103       -1.60547
N         -1.55258        1.36818        0.02467
C          2.67880        0.69692        0.10408
C          3.54350        0.29137       -0.91481
C          2.60388       -0.07142        1.27458
C          4.30010       -0.86952       -0.77555
H          3.60607        0.88011       -1.83297
C          3.37471       -1.21762        1.41058
H          1.94050        0.23722        2.08528
C          4.22434       -1.64705        0.38300
H          4.95662       -1.18297       -1.59147
H          3.29849       -1.80670        2.32792
C          4.98970       -2.92984        0.51060
H          5.37846       -3.06918        1.53026
H          4.33275       -3.78795        0.29148
H          5.83492       -2.97061       -0.19089
C         -6.43283       -1.63437        0.14100
H         -6.23841       -2.65609        0.50602
H         -7.17920       -1.17886        0.80653
H         -6.87866       -1.72877       -0.86074
Au         0.11896       -1.20489       -0.20092
H          0.39096       -2.77986       -0.39184
