41
l_terbutyl_auh.log	Energy: -521519.0701954
C          0.93370        2.52935        0.00009
C          2.37818        0.56962        0.00005
C          3.42155        1.45376        0.00001
C          3.28595        2.87193       -0.00001
C          2.04225        3.41115        0.00006
C         -0.40597        2.78807        0.00012
H          4.42751        1.04571       -0.00000
H          4.17884        3.49925       -0.00005
H          1.85646        4.48595        0.00007
H         -0.90373        3.74825        0.00015
N          1.07166        1.12148        0.00006
C         -0.18285        0.53492        0.00005
N         -1.05099        1.58374        0.00010
C         -2.54610        1.47661        0.00014
C         -3.15711        2.87721        0.00028
H         -2.88432        3.45218       -0.89704
H         -4.25002        2.76907        0.00033
H         -2.88423        3.45204        0.89767
C         -2.99752        0.75239       -1.26732
H         -2.64460        1.28507       -2.16330
H         -2.61424       -0.27969       -1.29498
H         -4.09613        0.71320       -1.29387
C         -2.99744        0.75217        1.26750
H         -2.61416       -0.27991        1.29496
H         -2.64445        1.28470        2.16355
H         -4.09605        0.71299        1.29412
C          2.64842       -0.93395        0.00014
C          2.10382       -1.57104       -1.28896
H          2.27569       -2.65737       -1.26726
H          1.02463       -1.41832       -1.42811
H          2.63005       -1.15439       -2.16193
C          4.15711       -1.22117        0.00028
H          4.66071       -0.82716        0.89572
H          4.29522       -2.31195        0.00030
H          4.66087       -0.82720       -0.89509
C          2.10364       -1.57093        1.28922
H          2.62932       -1.15376        2.16228
H          1.02431       -1.41874        1.42789
H          2.27610       -2.65717        1.26789
Au        -0.88225       -1.46538       -0.00018
H         -1.48031       -2.95456       -0.00043
