71
per_ad_auh.log	Energy: -909612.9284624
C         -1.70948        2.73426        1.68316
C         -0.97198        2.09090        0.70530
C         -0.00003        2.82984       -0.00011
C         -0.00003        4.24810       -0.00033
C         -0.85371        4.89350        0.93064
C         -1.62768        4.14163        1.78947
H         -2.37884        2.18022        2.33924
C          0.97198        2.09069       -0.70522
C          0.85371        4.89322       -0.93147
H         -0.87566        5.98472        0.97233
H         -2.23666        4.64255        2.54559
C          1.62780        4.14108       -1.78995
C          1.70964        2.73375       -1.68316
H          0.87564        5.98442       -0.97350
H          2.23686        4.64177       -2.54616
H          2.37915        2.17952       -2.33892
C         -0.00004        0.02261        0.00025
N          1.11494        0.74358       -0.29270
N         -1.11497        0.74365        0.29320
C          2.48979        0.15066       -0.08467
C          3.57864        1.23657        0.01720
C          2.51366       -0.57635        1.27569
C          2.85074       -0.81004       -1.22216
H          3.32284        1.94550        0.82201
H          3.65683        1.82250       -0.90388
C          4.95113        0.59812        0.27205
H          1.72998       -1.34888        1.31279
H          2.28605        0.15612        2.06889
C          3.86825       -1.24122        1.51905
H          2.86387       -0.25804       -2.17754
H          2.07199       -1.58798       -1.30355
C          4.21452       -1.45003       -0.95190
H          5.69799        1.40809        0.30850
C          4.95214       -0.16970        1.59072
C          5.28427       -0.35828       -0.87654
H          3.81715       -1.79397        2.47108
C          4.16380       -2.21487        0.37416
H          4.44800       -2.14735       -1.77275
H          4.75641        0.51485        2.43312
H          5.94097       -0.62563        1.76648
H          5.33203        0.19357       -1.83097
H          6.27880       -0.80707       -0.71612
H          5.12483       -2.72566        0.55231
H          3.38301       -2.99193        0.33053
C         -2.48984        0.15072        0.08512
C         -3.57890        1.23649       -0.01590
C         -2.51384       -0.57553       -1.27563
C         -2.85044       -0.81062        1.22219
H         -3.32341        1.94597       -0.82032
H         -3.65705        1.82181        0.90557
C         -4.95133        0.59793       -0.27088
H         -1.73000       -1.34787       -1.31331
H         -2.28654        0.15744       -2.06846
C         -3.86835       -1.24053       -1.51909
H         -2.86352       -0.25907        2.17783
H         -2.07155       -1.58847        1.30310
C         -4.21413       -1.45073        0.95182
H         -5.69832        1.40781       -0.30676
C         -4.95244       -0.16916       -1.58997
C         -5.28411       -0.35916        0.87723
H         -3.81734       -1.79276       -2.47143
C         -4.16350       -2.21484       -0.37467
H         -4.44733       -2.14854        1.77233
H         -4.75698        0.51589       -2.43203
H         -5.94122       -0.62515       -1.76581
H         -5.33183        0.19216        1.83198
H         -6.27858       -0.80805        0.71672
H         -5.12446       -2.72573       -0.55292
H         -3.38254       -2.99178       -0.33159
Au        -0.00002       -2.11024       -0.00027
H          0.00003       -3.71657       -0.00082
