79
per_dipp_auh.log	Energy: -1006852.2885430
C          2.42927       -2.77331       -0.00043
C          1.22595       -2.09184       -0.00026
C          0.00000       -2.80257       -0.00020
C          0.00000       -4.22683       -0.00030
C          1.24880       -4.89909       -0.00047
C          2.42382       -4.18332       -0.00054
H          3.36931       -2.22259       -0.00048
C         -1.22595       -2.09184       -0.00003
C         -1.24880       -4.89909       -0.00022
H          1.26154       -5.99105       -0.00054
H          3.38062       -4.71047       -0.00067
C         -2.42382       -4.18332       -0.00005
C         -2.42927       -2.77331        0.00004
H         -1.26153       -5.99105       -0.00029
H         -3.38061       -4.71047        0.00001
H         -3.36931       -2.22259        0.00017
C         -0.00000        0.01601       -0.00001
N         -1.14913       -0.68612        0.00003
N          1.14913       -0.68612       -0.00013
C         -2.38649        0.04888        0.00013
C         -2.97449        0.37188        1.23285
C         -2.97471        0.37181       -1.23251
C         -4.19607        1.04961        1.20602
C         -4.19628        1.04955       -1.20550
C         -4.80322        1.38346        0.00030
H         -4.67578        1.32692        2.14759
H         -4.67615        1.32682       -2.14700
C          2.38649        0.04888       -0.00012
C          2.97451        0.37205       -1.23279
C          2.97469        0.37165        1.23258
C          4.19608        1.04978       -1.20584
C          4.19626        1.04939        1.20567
C          4.80322        1.38346       -0.00007
H          4.67581        1.32721       -2.14737
H          4.67612        1.32653        2.14723
C          2.31514        0.03635        2.55452
H          1.37986       -0.50063        2.33615
C          2.31479        0.03717       -2.55475
H          1.37942       -0.49968       -2.33642
C         -2.31475        0.03682        2.55476
H         -1.37938       -0.49999        2.33634
C         -2.31518        0.03671       -2.55451
H         -1.37990       -0.50033       -2.33623
C          3.18388       -0.89279       -3.39999
H          4.13670       -0.41394       -3.67597
H          3.41631       -1.82323       -2.86030
H          2.66546       -1.16128       -4.33355
C          1.93781        1.31278       -3.30785
H          1.30877        1.96421       -2.68149
H          2.83277        1.88563       -3.59783
H          1.38247        1.06998       -4.22712
C          3.18446       -0.89363        3.39949
H          3.41704       -1.82390        2.85958
H          4.13720       -0.41467        3.67554
H          2.66615       -1.16244        4.33302
C          1.93799        1.31173        3.30792
H          2.83287        1.88469        3.59793
H          1.30875        1.96317        2.68177
H          1.38279        1.06864        4.22720
C         -3.18382       -0.89328        3.39988
H         -4.13664       -0.41448        3.67593
H         -3.41625       -1.82364        2.86006
H         -2.66539       -1.16189        4.33339
C         -1.93778        1.31232        3.30804
H         -1.30876        1.96385        2.68176
H         -2.83274        1.88511        3.59813
H         -1.38241        1.06940        4.22726
C         -3.18452       -0.89314       -3.39962
H         -3.41711       -1.82349       -2.85984
H         -4.13726       -0.41412       -3.67558
H         -2.66622       -1.16181       -4.33318
C         -1.93802        1.31219       -3.30772
H         -2.83289        1.88521       -3.59762
H         -1.30876        1.96352       -2.68148
H         -1.38283        1.06923       -4.22705
H         -5.75709        1.91614        0.00038
H          5.75708        1.91614       -0.00006
Au        -0.00000        2.09801        0.00013
H         -0.00000        3.70760        0.00023
