61
per_mes_auh.log	Energy: -858759.5035144
C         -2.42974        2.85885        0.00002
C         -1.22635        2.17803        0.00001
C          0.00002        2.88843        0.00000
C          0.00002        4.31269        0.00000
C         -1.24903        4.98472        0.00001
C         -2.42412        4.26875        0.00002
H         -3.36904        2.30604        0.00003
C          1.22638        2.17802       -0.00000
C          1.24908        4.98470       -0.00001
H         -1.26198        6.07669        0.00001
H         -3.38083        4.79612        0.00003
C          2.42416        4.26872       -0.00002
C          2.42977        2.85883       -0.00001
H          1.26204        6.07668       -0.00001
H          3.38088        4.79609       -0.00002
H          3.36907        2.30600       -0.00002
C          0.00000        0.07231        0.00000
N          1.15029        0.77196       -0.00000
N         -1.15028        0.77197        0.00001
C          2.38142        0.02751       -0.00000
C          2.96606       -0.30623        1.22704
C          2.96605       -0.30624       -1.22705
C          4.17575       -1.00137        1.20100
C          4.17574       -1.00138       -1.20100
C          4.79434       -1.35949        0.00000
H          4.64454       -1.27690        2.14986
H          4.64454       -1.27692       -2.14986
C         -2.38141        0.02754        0.00002
C         -2.96608       -0.30618       -1.22703
C         -2.96604       -0.30622        1.22706
C         -4.17577       -1.00130       -1.20098
C         -4.17575       -1.00135        1.20101
C         -4.79436       -1.35943        0.00002
H         -4.64459       -1.27680       -2.14984
H         -4.64454       -1.27688        2.14987
C         -6.07263       -2.14568       -0.00003
H         -5.86104       -3.22790       -0.00186
H         -6.67887       -1.93240        0.89208
H         -6.68041       -1.92975       -0.89048
C          6.07267       -2.14565        0.00000
H          6.67965       -1.93100        0.89129
H          5.86117       -3.22789       -0.00003
H          6.67967       -1.93096       -0.89126
C         -2.28541        0.04133        2.51547
H         -1.34424       -0.52538        2.61216
H         -2.03122        1.11160        2.56785
H         -2.92062       -0.20465        3.37644
C         -2.28547        0.04142       -2.51544
H         -2.03134        1.11171       -2.56781
H         -1.34426       -0.52522       -2.61213
H         -2.92066       -0.20458       -3.37641
C          2.28544        0.04135        2.51546
H          2.03128        1.11163        2.56783
H          1.34424       -0.52533        2.61214
H          2.92063       -0.20465        3.37642
C          2.28543        0.04133       -2.51546
H          1.34424       -0.52535       -2.61214
H          2.03127        1.11161       -2.56784
H          2.92062       -0.20467       -3.37643
Au        -0.00002       -2.00999       -0.00001
H         -0.00003       -3.61934       -0.00002
