47
per_terbutyl_auh.log	Energy: -617967.5759864
C         -2.42189        2.06260        1.22793
C         -1.77493        1.10956        0.46221
C         -2.51281       -0.00001       -0.00000
C         -3.93157       -0.00001       -0.00001
C         -4.57890        1.05033        0.69959
C         -3.82907        2.00934        1.34702
H         -1.87174        2.87627        1.69704
C         -1.77491       -1.10957       -0.46220
C         -4.57888       -1.05036       -0.69961
H         -5.67016        1.07998        0.73344
H         -4.33149        2.78327        1.93190
C         -3.82904       -2.00937       -1.34703
C         -2.42186       -2.06262       -1.22793
H         -5.67015       -1.08003       -0.73348
H         -4.33144       -2.78330       -1.93191
H         -1.87170       -2.87629       -1.69702
C          0.29565        0.00001        0.00001
N         -0.42517       -1.15187       -0.03608
N         -0.42518        1.15188        0.03610
C          0.17198        2.46395       -0.43779
C          1.06231        3.05220        0.65230
H          1.49318        4.00541        0.31214
H          0.48989        3.24176        1.57277
H          1.89087        2.36600        0.88993
C          0.95207        2.22011       -1.73579
H          1.82584        1.56640       -1.59626
H          0.29690        1.77277       -2.49870
H          1.31725        3.18483       -2.11534
C          0.17200       -2.46394        0.43781
C          0.95215       -2.22009        1.73577
H          1.82594       -1.56642        1.59619
H          0.29702       -1.77270        2.49869
H          1.31730       -3.18481        2.11535
C         -0.93007       -3.45911        0.82565
H         -1.44747       -3.91521       -0.02397
H         -0.45139       -4.27285        1.38722
H         -1.68289       -2.99615        1.48005
C          1.06228       -3.05221       -0.65230
H          1.49316       -4.00542       -0.31215
H          0.48984       -3.24179       -1.57275
H          1.89084       -2.36602       -0.88997
C         -0.93010        3.45914       -0.82557
H         -1.44745        3.91524        0.02407
H         -0.45143        4.27288       -1.38716
H         -1.68295        2.99620       -1.47994
Au         2.42127        0.00000       -0.00001
H          4.02772       -0.00000       -0.00003
