49
per_phme_auh.log	Energy: -760011.4415251
C          2.42967        2.88921       -0.00022
C          1.22721        2.20703       -0.00020
C          0.00000        2.91674       -0.00037
C          0.00000        4.34105       -0.00055
C          1.24837        5.01411       -0.00056
C          2.42359        4.29899       -0.00040
H          3.37091        2.34074       -0.00009
C         -1.22721        2.20703       -0.00035
C         -1.24836        5.01411       -0.00070
H          1.26024        6.10609       -0.00070
H          3.38018        4.82657       -0.00041
C         -2.42358        4.29899       -0.00068
C         -2.42966        2.88921       -0.00050
H         -1.26023        6.10609       -0.00084
H         -3.38017        4.82657       -0.00080
H         -3.37090        2.34075       -0.00049
C         -0.00000        0.09600       -0.00001
N         -1.14956        0.79983       -0.00017
N          1.14956        0.79983       -0.00003
C         -2.37804        0.05558       -0.00015
C         -2.97345       -0.29531       -1.20788
C         -2.97358       -0.29503        1.20760
C         -4.16339       -1.01565       -1.20131
H         -2.49309       -0.01375       -2.14686
C         -4.16351       -1.01538        1.20107
H         -2.49331       -0.01327        2.14657
C         -4.77572       -1.39284       -0.00011
H         -4.62179       -1.30062       -2.15173
H         -4.62201       -1.30014        2.15151
C          2.37804        0.05558        0.00014
C          2.97344       -0.29503        1.20796
C          2.97359       -0.29532       -1.20752
C          4.16337       -1.01538        1.20158
H          2.49306       -0.01325        2.14687
C          4.16352       -1.01568       -1.20081
H          2.49333       -0.01378       -2.14656
C          4.77571       -1.39285        0.00047
H          4.62176       -1.30012        2.15207
H          4.62203       -1.30065       -2.15117
C          6.03151       -2.21364        0.00066
H          5.78950       -3.28945        0.00089
H          6.64416       -2.01612       -0.89064
H          6.64415       -2.01573        0.89187
C         -6.03151       -2.21364       -0.00009
H         -6.64430       -2.01571       -0.89120
H         -5.78948       -3.28945       -0.00039
H         -6.64401       -2.01614        0.89131
Au        -0.00000       -1.99005        0.00024
H         -0.00000       -3.59938        0.00043
