23
thiazol_phme_auh.log	Energy: -611623.0606850
N         -0.13356        1.55270        0.10923
C          1.01397        0.84767        0.05484
C         -1.42285        0.92788        0.08972
C         -1.70774       -0.11008        0.97526
C         -2.96101       -0.70854        0.94076
H         -3.17695       -1.52510        1.63435
C         -3.94773       -0.28816        0.03889
C         -3.63802        0.76099       -0.83249
H         -4.38711        1.10446       -1.55028
C         -2.38418        1.36665       -0.81628
C         -5.28517       -0.96587       -0.00177
H         -5.20233       -1.96321       -0.46371
H         -6.01491       -0.38787       -0.58536
H         -5.69170       -1.11104        1.01033
C         -0.01083        2.93372        0.17938
H         -0.90827        3.54580        0.24909
C          1.27849        3.34018        0.18109
H          1.64962        4.36156        0.23965
S          2.31297        1.95720        0.09743
H         -0.94483       -0.44699        1.67908
H         -2.14743        2.16412       -1.52412
Au         1.31124       -1.18709       -0.09672
H          1.55361       -2.77203       -0.22779
