34
thiazol_ad_auh.log	Energy: -686277.7120640
N         -0.06819        1.52271        0.00000
C          1.15517        0.96155       -0.00001
C         -0.09010        2.90879        0.00002
H         -1.03385        3.44444        0.00003
C          1.14503        3.46148        0.00001
H          1.39305        4.52097        0.00001
S          2.32476        2.20429       -0.00001
Au         1.80637       -1.01073        0.00000
H          2.34066       -2.52583        0.00002
C         -1.31215        0.69202        0.00001
C         -1.33394       -0.18585        1.25861
C         -2.56558        1.57514        0.00002
C         -1.33395       -0.18583       -1.25862
H         -1.31507        0.46119        2.15204
H         -0.42401       -0.80803        1.28280
C         -2.58221       -1.06964        1.25140
H         -2.57592        2.22401       -0.89195
H         -2.57593        2.22397        0.89202
C         -3.82173        0.69458        0.00001
H         -0.42402       -0.80800       -1.28282
H         -1.31509        0.46123       -2.15203
C         -2.58222       -1.06962       -1.25142
H         -2.57056       -1.70284        2.15287
C         -3.83166       -0.18711        1.25049
C         -2.56960       -1.95261       -0.00002
H         -4.70499        1.35364        0.00002
C         -3.83167       -0.18709       -1.25049
H         -2.57057       -1.70280       -2.15290
H         -3.85740        0.43834        2.15889
H         -4.74150       -0.80964        1.26363
H         -1.67321       -2.59408       -0.00003
H         -3.44727       -2.62006       -0.00002
H         -4.74151       -0.80961       -1.26364
H         -3.85741        0.43838       -2.15888
