40
thiazol_dipp_auh.log	Energy: -735496.6678107
C         -0.72190       -0.46148        0.77819
N          0.56778       -0.34558        1.02976
C         -0.07377       -1.26680        3.16788
H          0.00043       -2.25145        3.64726
H         -0.19094       -0.50219        3.94900
C          1.09962       -0.98640        2.24223
H          1.85117       -0.33108        2.70129
H          1.60338       -1.91849        1.94281
C          1.48353        0.28420        0.11702
C          1.66348        1.68162        0.20719
C          2.57208        2.27408       -0.67582
H          2.71970        3.35595       -0.62468
C          3.27033        1.52636       -1.61336
C          3.06963        0.15613       -1.67997
H          3.60940       -0.43465       -2.42491
C          2.18222       -0.50359       -0.82068
C          2.12174       -2.01936       -0.99144
H          2.34590       -2.16480       -2.06114
C          0.90666        2.64243        1.11841
H          1.56524        3.52557        1.17147
H          3.96760        2.01424       -2.29805
C          3.26624       -2.69676       -0.22924
H          3.29836       -3.77251       -0.46194
H          4.23968       -2.25948       -0.49604
H          3.15257       -2.59688        0.86128
C          0.79104       -2.72939       -0.76141
H          0.53207       -2.84575        0.30097
H         -0.04224       -2.20737       -1.25505
H          0.85197       -3.74468       -1.18184
C          0.67081        2.22232        2.56692
H         -0.13400        1.48108        2.66489
H          1.58455        1.83063        3.03907
H          0.35723        3.10274        3.14807
C         -0.39500        3.10907        0.46276
H         -0.21137        3.51171       -0.54371
H         -1.11140        2.27967        0.35153
H         -0.86849        3.89637        1.06999
S         -1.55058       -1.21856        2.07651
Au        -1.73673        0.02777       -0.94875
H         -2.52448        0.35868       -2.31356
