29
thiazol_mes_auh.log	Energy: -660878.0984609
N          0.04147        1.49214       -0.00002
C          1.16853        0.75980        0.00003
C         -1.25777        0.87319       -0.00002
C         -1.85891        0.58073        1.22923
C         -3.12402       -0.00766        1.20136
H         -3.61308       -0.24601        2.14989
C         -3.77180       -0.30861        0.00004
C         -3.12405       -0.00769       -1.20132
H         -3.61315       -0.24607       -2.14983
C         -1.85894        0.58068       -1.22926
C         -5.11400       -0.97954        0.00005
H         -4.99789       -2.07606       -0.00089
H         -5.69990       -0.71175       -0.89080
H         -5.69919       -0.71318        0.89178
C          0.18851        2.86982       -0.00008
H         -0.70102        3.49817       -0.00013
C          1.48716        3.24910       -0.00007
H          1.88255        4.26302       -0.00011
S          2.49395        1.84123        0.00001
Au         1.31414       -1.29130        0.00001
H          1.40896       -2.89827       -0.00006
C         -1.14257        0.84445       -2.51892
H         -1.79435        0.64410       -3.37908
H         -0.78762        1.88423       -2.59187
H         -0.25611        0.19364       -2.60115
C         -1.14252        0.84466        2.51885
H         -0.25598        0.19397        2.60110
H         -0.78771        1.88451        2.59168
H         -1.79424        0.64431        3.37905
