22
thiazol_terbutyl_auh.log	Energy: -540770.0670725
C         -0.32804        0.65080       -0.00005
N         -1.61279        0.25692       -0.00007
C         -2.55403        1.28021       -0.00004
H         -3.61518        1.04421       -0.00003
C         -2.00635        2.51459       -0.00002
H         -2.52986        3.46863       -0.00000
C         -2.10749       -1.16194       -0.00007
C         -0.96111       -2.15958       -0.00031
H         -0.32199       -2.05627        0.88730
H         -1.39395       -3.17050       -0.00036
H         -0.32222       -2.05608       -0.88807
C         -2.94538       -1.36265       -1.26438
H         -3.30017       -2.40219       -1.30663
H         -3.82943       -0.70942       -1.29551
H         -2.33911       -1.16982       -2.16163
C         -2.94497       -1.36276        1.26449
H         -3.29984       -2.40227        1.30673
H         -2.33839       -1.17009        2.16157
H         -3.82896       -0.70945        1.29598
S         -0.28786        2.36334       -0.00003
Au         1.55760       -0.22594        0.00005
H          3.04781       -0.82178        0.00019
