36
triazol_phme_auh.log	Energy: -577159.4607028
N         -1.01026        1.43437        0.18756
C          0.03787        0.56369        0.10784
N          1.10335        1.38810        0.19526
C         -2.39154        1.09537        0.14336
C         -2.88173        0.04802        0.92304
C         -4.23359       -0.26676        0.86715
H         -4.60976       -1.09336        1.47521
C         -5.11994        0.45222        0.05391
C         -4.60453        1.50456       -0.70929
H         -5.27220        2.07814       -1.35700
C         -3.24972        1.82431       -0.67614
C         -6.57194        0.08133       -0.00934
H         -6.71088       -0.85628       -0.57193
H         -7.16765        0.85955       -0.50601
H         -6.98808       -0.08041        0.99638
C          2.48021        1.02844        0.15232
C          2.91095       -0.20126        0.64786
C          4.26084       -0.52692        0.57991
H          4.58896       -1.49488        0.96731
C          5.20208        0.35712        0.03918
C          4.74378        1.59352       -0.42981
H          5.45686        2.30817       -0.84892
C          3.39627        1.93364       -0.38030
C          6.65059       -0.02171       -0.05370
H          7.29627        0.86430       -0.13278
H          6.83495       -0.64577       -0.94404
H          6.97120       -0.60434        0.82236
C         -0.51508        2.70755        0.29786
H         -1.13819        3.59417        0.39379
N          0.77809        2.70049        0.30354
H          3.04530        2.89923       -0.74510
H          2.19227       -0.90228        1.07757
H         -2.20110       -0.51811        1.56116
H         -2.85767        2.62621       -1.30567
Au        -0.07648       -1.48939       -0.18447
H         -0.18396       -3.07209       -0.43687
