48
triazol_mes_auh.log	Energy: -675901.8097800
N          1.04802        1.23423        0.51283
C         -0.01208        0.44723        0.18405
N         -1.06161        1.21650        0.51942
C          2.42238        0.87401        0.35435
C          3.07134        1.21169       -0.83813
C          4.41477        0.85272       -0.96588
H          4.94005        1.10232       -1.89174
C          5.09537        0.17284        0.04673
C          4.39802       -0.16217        1.21202
H          4.91080       -0.71347        2.00516
C          3.05645        0.17420        1.38928
C          2.29693       -0.23879        2.61369
H          1.51760       -0.97276        2.34915
H          1.78927        0.61294        3.09263
H          2.96374       -0.69950        3.35394
C          6.54454       -0.18700       -0.10228
H          6.87763       -0.09849       -1.14554
H          6.73647       -1.21725        0.23253
H          7.17870        0.47669        0.50826
C          2.32945        1.88620       -1.95261
H          1.53094        1.22853       -2.33402
H          3.00303        2.12382       -2.78611
H          1.84910        2.82141       -1.62496
C         -2.43514        0.85173        0.37276
C         -3.01416        0.00850        1.32714
C         -4.35679       -0.33206        1.15448
H         -4.83054       -0.98918        1.88903
C         -5.10533        0.14126        0.07376
C         -4.48240        0.98233       -0.85312
H         -5.05411        1.36061       -1.70515
C         -3.14282        1.34981       -0.72690
C         -2.46705        2.23085       -1.73341
H         -2.08657        3.15169       -1.26501
H         -3.15824        2.51180       -2.53865
H         -1.60535        1.71409       -2.18657
C         -6.53644       -0.27242       -0.10761
H         -7.11870        0.50295       -0.62586
H         -7.02154       -0.48194        0.85647
H         -6.60078       -1.19138       -0.71375
C         -2.21107       -0.52695        2.47334
H         -2.85815       -1.02031        3.21029
H         -1.65141        0.27208        2.98306
H         -1.47537       -1.26588        2.11319
C          0.57404        2.41699        1.01838
H          1.21610        3.22682        1.35978
N         -0.72207        2.42803        1.03175
Au         0.01781       -1.45504       -0.60769
H          0.04959       -2.94433       -1.21660
