34
triazol_terbutyl_auh.log	Energy: -435148.6204365
N          1.06063        1.41135       -0.00002
C          0.00434        0.57808       -0.00003
N         -1.06084        1.42990       -0.00004
C         -0.57675        2.70859       -0.00003
H         -1.18761        3.60576       -0.00005
C          2.49897        1.02276        0.00000
C         -2.49393        1.02837       -0.00001
C         -2.77236        0.21231        1.26078
H         -2.54915        0.80005        2.16396
H         -3.83258       -0.07790        1.28616
H         -2.16111       -0.70345        1.27749
C         -2.77241        0.21208       -1.26063
H         -3.83257       -0.07838       -1.28577
H         -2.54950        0.79973       -2.16394
H         -2.16096       -0.70355       -1.27731
C         -3.36164        2.28361       -0.00008
H         -4.41640        1.97704       -0.00012
H         -3.19788        2.90008        0.89677
H         -3.19781        2.90004       -0.89694
C          2.78035        0.20685        1.26049
H          2.18081       -0.71669        1.27696
H          3.84390       -0.07066        1.28897
H          2.54964        0.79331        2.16248
C          3.34517        2.29056        0.00000
H          4.40407        1.99542        0.00002
H          3.15212        2.90711       -0.88789
H          3.15210        2.90712        0.88789
C          2.78039        0.20682       -1.26046
H          2.54972        0.79327       -2.16247
H          3.84394       -0.07069       -1.28889
H          2.18085       -0.71671       -1.27694
N          0.71942        2.71601       -0.00002
Au        -0.00486       -1.51296       -0.00000
H         -0.01479       -3.11825        0.00002
