66
triazol_dipp_auh.log	Energy: -823993.1277417
N         -1.06476        0.04810        1.14184
C         -0.01242        0.04909        0.30656
N          1.04288        0.10252        1.16254
C         -2.43499       -0.02764        0.73756
C         -2.95490       -1.28393        0.38796
C         -4.29278       -1.32755       -0.01141
H         -4.73850       -2.28183       -0.29607
C         -5.06305       -0.16986       -0.05619
C         -4.51386        1.06021        0.29050
H         -5.13030        1.95932        0.23976
C         -3.17993        1.15948        0.69350
C         -2.53520        2.49731        0.99672
H         -1.70217        2.30796        1.69173
C         -2.10776       -2.53714        0.48266
H         -1.06765       -2.23975        0.27688
C          2.42001        0.09380        0.77521
C          3.03783        1.31586        0.46982
C          4.38154        1.27331        0.08734
H          4.89677        2.20262       -0.16538
C          5.06624        0.06556        0.01375
C          4.42204       -1.12993        0.31655
H          4.96973       -2.07149        0.24137
C          3.07995       -1.14431        0.70337
C          2.35660       -2.45212        0.95929
H          1.42132       -2.22188        1.49333
C          2.28462        2.63056        0.49600
H          1.29495        2.44418        0.94087
C          0.56528        0.13110        2.44650
H          1.20402        0.17599        3.32631
C         -2.15988       -3.10617        1.90301
H         -1.85755       -2.35577        2.64843
H         -3.18160       -3.43391        2.15306
H         -1.49153       -3.97689        1.99692
C         -2.46609       -3.58923       -0.55966
H         -3.46093       -4.02772       -0.38321
H         -2.44743       -3.16594       -1.57495
H         -1.73886       -4.41453       -0.52312
C         -1.95050        3.09834       -0.28468
H         -2.75161        3.32871       -1.00464
H         -1.40969        4.03261       -0.06531
H         -1.25507        2.40309       -0.78037
C         -3.47676        3.47573        1.69081
H         -2.92679        4.38090        1.98984
H         -4.29333        3.80116        1.02750
H         -3.92543        3.03451        2.59340
C          1.96785       -3.10698       -0.36833
H          1.37732       -4.01982       -0.19209
H          1.37128       -2.42287       -0.99331
H          2.86450       -3.38663       -0.94381
C          3.15364       -3.40465        1.84655
H          4.07235       -3.75443        1.35070
H          3.44338       -2.92894        2.79582
H          2.55295       -4.29672        2.08046
C          2.04803        3.13710       -0.92763
H          1.51547        2.38486       -1.53141
H          1.44526        4.05839       -0.91460
H          3.00136        3.36217       -1.43152
C          2.98202        3.67574        1.36439
H          3.13987        3.30985        2.39045
H          3.96462        3.95617        0.95395
H          2.37630        4.59330        1.41797
H          6.11533        0.05408       -0.29103
H         -6.10731       -0.22675       -0.37257
N         -0.73091        0.09444        2.45732
Au         0.00017       -0.05610       -1.75541
H          0.01002       -0.14973       -3.36110
