58
triazol_ad_auh.log	Energy: -726792.2361188
N         -0.97959        1.27243        0.00007
C          0.04133        0.36025        0.00003
N          1.13848        1.13990        0.00008
C          2.57346        0.79030        0.00006
C          3.21745        1.40103       -1.25386
C          3.21745        1.40090        1.25404
C          2.80984       -0.71737       -0.00002
H          3.02235        2.48391       -1.26734
H          2.74148        0.96590       -2.14862
C          4.72141        1.11998       -1.25127
H          2.74147        0.96567        2.14876
H          3.02235        2.48377        1.26763
C          4.72141        1.11985        1.25143
H          2.33810       -1.17710       -0.88302
H          2.33809       -1.17719        0.88293
C          4.31645       -0.99976       -0.00003
H          5.16904        1.56827       -2.15328
C          5.35187        1.73857        0.00011
C          4.95572       -0.39222       -1.25048
H          5.16904        1.56805        2.15348
C          4.95572       -0.39235        1.25048
H          4.46061       -2.09182       -0.00009
H          5.20122        2.83121        0.00017
H          6.44071        1.56390        0.00010
H          4.52058       -0.84504       -2.15706
H          6.03661       -0.61044       -1.26890
H          6.03661       -0.61057        1.26887
H          4.52057       -0.84526        2.15702
C         -2.42510        0.96019        0.00004
C         -2.78265        0.15687        1.25819
C         -3.24251        2.25800        0.00010
C         -2.78262        0.15699       -1.25820
H         -2.51600        0.74709        2.15142
H         -2.18043       -0.76714        1.28058
C         -4.27485       -0.17809        1.25132
H         -2.99806        2.86043       -0.89130
H         -2.99808        2.86034        0.89157
C         -4.73990        1.92938        0.00007
H         -2.18041       -0.76701       -1.28067
H         -2.51597        0.74731       -2.15136
C         -4.27483       -0.17797       -1.25139
H         -4.50905       -0.76673        2.15274
C         -5.08784        1.11816        1.25035
C         -4.60369       -0.99770       -0.00008
H         -5.30370        2.87635        0.00011
C         -5.08782        1.11829       -1.25030
H         -4.50901       -0.76651       -2.15287
H         -4.87045        1.70494        2.15895
H         -6.16737        0.89410        1.26375
H         -4.02304       -1.93458       -0.00012
H         -5.67090       -1.27533       -0.00010
H         -6.16735        0.89423       -1.26375
H         -4.87042        1.70516       -2.15884
C         -0.43117        2.52307        0.00015
H         -0.99693        3.44934        0.00020
N          0.86178        2.46441        0.00015
Au        -0.18882       -1.72324       -0.00009
H         -0.40437       -3.31424       -0.00018
